F                                       
   1.00000000000000     
     6.120059    0.000000   -0.727106
     0.000000    3.685050    0.000000
     0.000000    0.000000    6.925430
   F 
     8
Direct
  0.255000  0.330300  0.094130
  0.745000  0.669700  0.905870
  0.745000  0.330300  0.405870
  0.255000  0.669700  0.594130
  0.755000  0.830300  0.094130
  0.245000  0.169700  0.905870
  0.245000  0.830300  0.405870
  0.755000  0.169700  0.594130
 
   72   48   80
  1.1139      1.1814      1.3876      1.7452      2.2818      3.0464      4.1143      5.5852      7.5747      10.199    
  13.559      17.720      22.691      28.380      34.547      40.762      46.407      50.772      53.210      53.325    
  51.096      46.883      41.315      35.107      28.895      23.132      18.078      13.837      10.407      7.7260    
  5.6973      4.2064      3.1395      2.3988      1.9123      1.6351      1.5448      1.6351      1.9123      2.3988    
  3.1395      4.2064      5.6973      7.7260      10.407      13.837      18.078      23.132      28.895      35.107    
  41.315      46.883      51.096      53.325      53.210      50.772      46.407      40.762      34.547      28.380    
  22.691      17.720      13.559      10.199      7.5747      5.5852      4.1143      3.0464      2.2818      1.7452    
  1.3876      1.1814      1.1194      1.2475      1.5216      1.9633      2.6133      3.5401      4.8453      6.6611    
  9.1401      12.441      16.712      22.078      28.602      36.217      44.635      53.264      61.208      67.404    
  70.878      71.026      67.816      61.799      53.930      45.284      36.786      29.064      22.434      16.974    
  12.627      9.2675      6.7469      4.9080      3.6002      2.6933      2.0880      1.7187      1.5483      1.5595    
  1.7483      2.1242      2.7137      3.5650      4.7473      6.3432      8.4346      11.085      14.321      18.115    
  22.360      26.846      31.244      35.128      38.032      39.554      39.468      37.788      34.766      30.814    
  26.398      21.936      17.740      14.008      10.835      8.2416      6.1947      4.6279      3.4573      2.5984    
  1.9791      1.5465      1.2679      1.1271      1.1356      1.3240      1.6675      2.1971      2.9681      4.0716    
  5.6392      7.8397      10.869      14.938      20.267      27.063      35.478      45.490      56.754      68.464    
  79.354      87.899      92.693      92.868      88.381      80.029      69.193      57.420      46.027      35.868    
  27.326      20.433      15.038      10.923      7.8644      5.6489      4.0827      2.9996      2.2709      1.8081    
  1.5584      1.4933      1.5992      1.8743      2.3305      2.9957      3.9148      5.1443      6.7414      8.7476    
  11.172      13.979      17.071      20.284      23.383      26.077      28.068      29.103      29.042      27.893    
  25.813      23.064      19.947      16.746      13.686      10.922      8.5430      6.5770      5.0097      3.7971    
  2.8806      2.2008      1.7085      1.3693      1.1639      1.0853      1.1617      1.4092      1.8224      2.4419    
  3.3392      4.6306      6.4809      9.0984      12.728      17.645      24.160      32.594      43.214      56.063    
  70.723      86.115      100.51      111.83      118.16      118.33      112.31      101.16      86.767      71.250    
  56.404      43.373      32.616      24.102      17.555      12.630      9.0065      6.4006      4.5689      3.3067    
  2.4543      1.8997      1.5737      1.4367      1.4664      1.6519      1.9931      2.5025      3.2048      4.1355    
  5.3321      6.8214      8.6052      10.649      12.876      15.160      17.334      19.201      20.567      21.273    
  21.231      20.447      19.017      17.110      14.921      12.641      10.434      8.4175      6.6631      5.1984    
  4.0176      3.0929      2.3853      1.8553      1.4717      1.2150      1.0764      1.0560      1.1964      1.5007    
  1.9827      2.6924      3.7188      5.2055      7.3525      10.409      14.673      20.494      28.287      38.512    
  51.573      67.581      86.021      105.49      123.71      137.99      145.92      146.04      138.29      124.06    
  105.75      86.098      67.436      51.241      38.072      27.823      20.066      14.313      10.121      7.1290    
  5.0372      3.6015      2.6306      1.9892      1.5921      1.3894      1.3506      1.4574      1.7013      2.0831    
  2.6123      3.3073      4.1908      5.2787      6.5689      8.0336      9.6150      11.223      12.739      14.030    
  14.967      15.450      15.423      14.888      13.908      12.589      11.062      9.4551      7.8832      6.4338    
  5.1602      4.0846      3.2058      2.5083      1.9683      1.5610      1.2689      1.0839      1.0054      1.0385    
  1.2379      1.5961      2.1445      2.9432      4.0991      5.7845      8.2352      11.741      16.652      23.399    
  32.510      44.591      60.193      79.493      101.85      125.48      147.52      164.70      174.14      174.07    
  164.44      147.06      124.78      100.93      78.384      58.979      43.375      31.390      22.443      15.886    
  11.154      7.7983      5.4650      3.8699      2.7914      2.0717      1.6111      1.3502      1.2515      1.2904    
  1.4529      1.7319      2.1257      2.6401      3.2865      4.0729      4.9947      6.0297      7.1374      8.2560    
  9.3036      10.189      10.829      11.159      11.143      10.780      10.112      9.2078      8.1533      7.0340    
  5.9289      4.9004      3.9869      3.2042      2.5544      2.0316      1.6234      1.3152      1.0991     0.97575    
 0.95034      1.0319      1.2846      1.6927      2.3042      3.1892      4.4730      6.3565      9.1099      13.062    
  18.612      26.267      36.670      50.572      68.667      91.187      117.34      144.94      170.55      190.46    
  201.26      200.77      189.05      168.39      142.33      114.54      88.385      66.005      48.157      34.581    
  24.549      17.266      12.051      8.3752      5.8312      4.0988      2.9287      2.1425      1.6277      1.3174    
  1.1680      1.1500      1.2452      1.4419      1.7311      2.1097      2.5813      3.1483      3.8037      4.5295    
  5.2980      6.0683      6.7852      7.3873      7.8207      8.0448      8.0357      7.7924      7.3408      6.7277    
  6.0076      5.2358      4.4655      3.7409      3.0888      2.5204      2.0401      1.6493      1.3434      1.1147    
 0.96114     0.88970     0.91028      1.0349      1.3346      1.7882      2.4584      3.4259      4.8342      6.9111    
  9.9585      14.339      20.498      29.010      40.621      56.221      76.638      102.15      131.82      163.04    
  191.89      214.13      225.80      224.56      210.65      186.77      157.14      125.89      96.649      71.777    
  52.071      37.187      26.262      18.381      12.769      8.8326      6.1192      4.2779      3.0358      2.1973    
  1.6395      1.2894      1.0989      1.0345      1.0753      1.2067      1.4153      1.6926      2.0374      2.4484    
  2.9169      3.4272      3.9604      4.4902      4.9793      5.3869      5.6788      5.8308      5.8272      5.6655    
  5.3627      4.9496      4.4606      3.9298      3.3926      2.8805      2.4127      1.9973      1.6404      1.3483    
  1.1215     0.95581     0.85309     0.82458     0.88400      1.0460      1.3862      1.8804      2.6044      3.6496    
  5.1771      7.4385      10.764      15.545      22.266      31.558      44.259      61.384      83.879      112.07    
  144.89      179.36      211.04      235.05      247.01      244.62      228.38      201.42      168.53      134.33    
  102.65      75.915      54.870      39.055      27.494      19.180      13.279      9.1525      6.3180      4.4004    
  3.1083      2.2330      1.6441      1.2643      1.0423     0.94210     0.94036      1.0205      1.1672      1.3692    
  1.6227      1.9244      2.2647      2.6295      3.0051      3.3744      3.7124      3.9912      4.1899      4.2946    
  4.2951      4.1884      3.9851      3.7057      3.3712      3.0021      2.6218      2.2539      1.9127      1.6046    
  1.3367      1.1179     0.95151     0.83517     0.77286     0.77884     0.86998      1.0635      1.4374      1.9672    
  2.7396      3.8567      5.4957      7.9288      11.509      16.655      23.879      33.866      47.530      65.991    
  90.301      120.83      156.40      193.73      227.78      253.06      264.85      260.90      242.10      212.13    
  176.30      139.66      106.20      78.274      56.450      40.119      28.203      19.640      13.567      9.3278    
  6.4240      4.4642      3.1445      2.2482      1.6400      1.2403     0.99627     0.87022     0.83711     0.87876    
 0.97871      1.1251      1.3133      1.5393      1.7933      2.0627      2.3367      2.6037      2.8458      3.0438    
  3.1845      3.2604      3.2647      3.1942      3.0554      2.8621      2.6272      2.3625      2.0846      1.8116    
  1.5550      1.3205      1.1157     0.95036     0.82860     0.74939     0.71801     0.75060     0.86656      1.0857    
  1.4866      2.0467      2.8614      4.0432      5.7834      8.3710      12.177      17.643      25.310      35.907    
  50.413      70.031      95.884      128.36      166.19      205.82      241.71      267.79      279.04      273.28    
  251.82      218.98      180.56      142.01      107.43      78.943      56.863      40.405      28.402      19.766    
  13.637      9.3618      6.4394      4.4708      3.1451      2.2425      1.6264      1.2162     0.95880     0.81618    
 0.76210     0.77679     0.84331     0.95034      1.0934      1.2686      1.4666      1.6762      1.8885      2.0943    
  2.2801      2.4314      2.5397      2.6006      2.6090      2.5620      2.4638      2.3237      2.1496      1.9491    
  1.7347      1.5211      1.3183      1.1319     0.96941     0.84040     0.74909     0.69549     0.68603     0.73782    
 0.87203      1.1111      1.5318      2.1166      2.9667      4.2042      6.0323      8.7521      12.749      18.484    
  26.529      37.652      52.886      73.482      100.58      134.53      173.92      215.00      251.92      278.16    
  288.54      280.96      257.11      221.86      181.46      141.70      106.66      78.169      56.272      40.005    
  28.140      19.587      13.506      9.2657      6.3719      4.4251      3.1129      2.2172      1.6032      1.1911    
 0.92829     0.77740     0.71181     0.71041     0.75596     0.83821     0.95361      1.0983      1.2636      1.4398    
  1.6194      1.7940      1.9517      2.0810      2.1756      2.2320      2.2458      2.2142      2.1403      2.0307    
  1.8904      1.7254      1.5462      1.3655      1.1923      1.0325     0.89386     0.78524     0.71068     0.67133    
 0.67482     0.73865     0.88480      1.1379      1.5713      2.1743      3.0520      4.3338      6.2323      9.0563    
  13.201      19.145      27.492      39.047      54.883      76.258      104.26      139.09      179.15      220.53    
  257.26      282.79      291.95      282.79      257.26      220.53      179.15      139.09      104.26      76.258    
  54.883      39.047      27.492      19.145      13.201      9.0563      6.2323      4.3338      3.0520      2.1743    
  1.5713      1.1649     0.90372     0.75189     0.68331     0.67605     0.71263     0.78413     0.88815      1.0208    
  1.1737      1.3383      1.5081      1.6746      1.8261      1.9523      2.0477      2.1084      2.1295      2.1084    
  2.0477      1.9523      1.8261      1.6746      1.5081      1.3383      1.1737      1.0208     0.88815     0.78413    
 0.71263     0.67605     0.68331     0.75189     0.90372      1.1649      1.6032      2.2172      3.1129      4.4251    
  6.3719      9.2657      13.506      19.587      28.140      40.005      56.272      78.169      106.66      141.70    
  181.46      221.86      257.11      280.96      288.54      278.16      251.92      215.00      173.92      134.53    
  100.58      73.482      52.886      37.652      26.529      18.484      12.749      8.7521      6.0323      4.2042    
  2.9667      2.1166      1.5318      1.1379     0.88480     0.73865     0.67482     0.67133     0.71068     0.78524    
 0.89386      1.0325      1.1923      1.3655      1.5462      1.7254      1.8904      2.0307      2.1403      2.2142    
  2.2458      2.2320      2.1756      2.0810      1.9517      1.7940      1.6194      1.4398      1.2636      1.0983    
 0.95361     0.83821     0.75596     0.71041     0.71181     0.77740     0.92829      1.1911      1.6264      2.2425    
  3.1451      4.4708      6.4394      9.3618      13.637      19.766      28.402      40.405      56.863      78.943    
  107.43      142.01      180.56      218.98      251.82      273.28      279.04      267.79      241.71      205.82    
  166.19      128.36      95.884      70.031      50.413      35.907      25.310      17.643      12.177      8.3710    
  5.7834      4.0432      2.8614      2.0467      1.4866      1.1111     0.87203     0.73782     0.68603     0.69549    
 0.74909     0.84040     0.96941      1.1319      1.3183      1.5211      1.7347      1.9491      2.1496      2.3237    
  2.4638      2.5620      2.6090      2.6006      2.5397      2.4314      2.2801      2.0943      1.8885      1.6762    
  1.4666      1.2686      1.0934     0.95034     0.84331     0.77679     0.76210     0.81618     0.95880      1.2162    
  1.6400      2.2482      3.1445      4.4642      6.4240      9.3278      13.567      19.640      28.203      40.119    
  56.450      78.274      106.20      139.66      176.30      212.13      242.10      260.90      264.85      253.06    
  227.78      193.73      156.40      120.83      90.301      65.991      47.530      33.866      23.879      16.655    
  11.509      7.9288      5.4957      3.8567      2.7396      1.9672      1.4374      1.0857     0.86656     0.75060    
 0.71801     0.74939     0.82860     0.95036      1.1157      1.3205      1.5550      1.8116      2.0846      2.3625    
  2.6272      2.8621      3.0554      3.1942      3.2647      3.2604      3.1845      3.0438      2.8458      2.6037    
  2.3367      2.0627      1.7933      1.5393      1.3133      1.1251     0.97871     0.87876     0.83711     0.87022    
 0.99627      1.2403      1.6441      2.2330      3.1083      4.4004      6.3180      9.1525      13.279      19.180    
  27.494      39.055      54.870      75.915      102.65      134.33      168.53      201.42      228.38      244.62    
  247.01      235.05      211.04      179.36      144.89      112.07      83.879      61.384      44.259      31.558    
  22.266      15.545      10.764      7.4385      5.1771      3.6496      2.6044      1.8804      1.3862      1.0635    
 0.86998     0.77884     0.77286     0.83517     0.95151      1.1179      1.3367      1.6046      1.9127      2.2539    
  2.6218      3.0021      3.3712      3.7057      3.9851      4.1884      4.2951      4.2946      4.1899      3.9912    
  3.7124      3.3744      3.0051      2.6295      2.2647      1.9244      1.6227      1.3692      1.1672      1.0205    
 0.94036     0.94210      1.0423      1.2643      1.6395      2.1973      3.0358      4.2779      6.1192      8.8326    
  12.769      18.381      26.262      37.187      52.071      71.777      96.649      125.89      157.14      186.77    
  210.65      224.56      225.80      214.13      191.89      163.04      131.82      102.15      76.638      56.221    
  40.621      29.010      20.498      14.339      9.9585      6.9111      4.8342      3.4259      2.4584      1.7882    
  1.3346      1.0460     0.88400     0.82458     0.85309     0.95581      1.1215      1.3483      1.6404      1.9973    
  2.4127      2.8805      3.3926      3.9298      4.4606      4.9496      5.3627      5.6655      5.8272      5.8308    
  5.6788      5.3869      4.9793      4.4902      3.9604      3.4272      2.9169      2.4484      2.0374      1.6926    
  1.4153      1.2067      1.0753      1.0345      1.0989      1.2894      1.6277      2.1425      2.9287      4.0988    
  5.8312      8.3752      12.051      17.266      24.549      34.581      48.157      66.005      88.385      114.54    
  142.33      168.39      189.05      200.77      201.26      190.46      170.55      144.94      117.34      91.187    
  68.667      50.572      36.670      26.267      18.612      13.062      9.1099      6.3565      4.4730      3.1892    
  2.3042      1.6927      1.2846      1.0349     0.91028     0.88970     0.96114      1.1147      1.3434      1.6493    
  2.0401      2.5204      3.0888      3.7409      4.4655      5.2358      6.0076      6.7277      7.3408      7.7924    
  8.0357      8.0448      7.8207      7.3873      6.7852      6.0683      5.2980      4.5295      3.8037      3.1483    
  2.5813      2.1097      1.7311      1.4419      1.2452      1.1500      1.1680      1.3174      1.6111      2.0717    
  2.7914      3.8699      5.4650      7.7983      11.154      15.886      22.443      31.390      43.375      58.979    
  78.384      100.93      124.78      147.06      164.44      174.07      174.14      164.70      147.52      125.48    
  101.85      79.493      60.193      44.591      32.510      23.399      16.652      11.741      8.2352      5.7845    
  4.0991      2.9432      2.1445      1.5961      1.2379      1.0319     0.95034     0.97575      1.0991      1.3152    
  1.6234      2.0316      2.5544      3.2042      3.9869      4.9004      5.9289      7.0340      8.1533      9.2078    
  10.112      10.780      11.143      11.159      10.829      10.189      9.3036      8.2560      7.1374      6.0297    
  4.9947      4.0729      3.2865      2.6401      2.1257      1.7319      1.4529      1.2904      1.2515      1.3502    
  1.5921      1.9892      2.6306      3.6015      5.0372      7.1290      10.121      14.313      20.066      27.823    
  38.072      51.241      67.436      86.098      105.75      124.06      138.29      146.04      145.92      137.99    
  123.71      105.49      86.021      67.581      51.573      38.512      28.287      20.494      14.673      10.409    
  7.3525      5.2055      3.7188      2.6924      1.9827      1.5007      1.1964      1.0385      1.0054      1.0839    
  1.2689      1.5610      1.9683      2.5083      3.2058      4.0846      5.1602      6.4338      7.8832      9.4551    
  11.062      12.589      13.908      14.888      15.423      15.450      14.967      14.030      12.739      11.223    
  9.6150      8.0336      6.5689      5.2787      4.1908      3.3073      2.6123      2.0831      1.7013      1.4574    
  1.3506      1.3894      1.5737      1.8997      2.4543      3.3067      4.5689      6.4006      9.0065      12.630    
  17.555      24.102      32.616      43.373      56.404      71.250      86.767      101.16      112.31      118.33    
  118.16      111.83      100.51      86.115      70.723      56.063      43.214      32.594      24.160      17.645    
  12.728      9.0984      6.4809      4.6306      3.3392      2.4419      1.8224      1.4092      1.1617      1.0560    
  1.0764      1.2150      1.4717      1.8553      2.3853      3.0929      4.0176      5.1984      6.6631      8.4175    
  10.434      12.641      14.921      17.110      19.017      20.447      21.231      21.273      20.567      19.201    
  17.334      15.160      12.876      10.649      8.6052      6.8214      5.3321      4.1355      3.2048      2.5025    
  1.9931      1.6519      1.4664      1.4367      1.5584      1.8081      2.2709      2.9996      4.0827      5.6489    
  7.8644      10.923      15.038      20.433      27.326      35.868      46.027      57.420      69.193      80.029    
  88.381      92.868      92.693      87.899      79.354      68.464      56.754      45.490      35.478      27.063    
  20.267      14.938      10.869      7.8397      5.6392      4.0716      2.9681      2.1971      1.6675      1.3240    
  1.1356      1.0853      1.1639      1.3693      1.7085      2.2008      2.8806      3.7971      5.0097      6.5770    
  8.5430      10.922      13.686      16.746      19.947      23.064      25.813      27.893      29.042      29.103    
  28.068      26.077      23.383      20.284      17.071      13.979      11.172      8.7476      6.7414      5.1443    
  3.9148      2.9957      2.3305      1.8743      1.5992      1.4933      1.5483      1.7187      2.0880      2.6933    
  3.6002      4.9080      6.7469      9.2675      12.627      16.974      22.434      29.064      36.786      45.284    
  53.930      61.799      67.816      71.026      70.878      67.404      61.208      53.264      44.635      36.217    
  28.602      22.078      16.712      12.441      9.1401      6.6611      4.8453      3.5401      2.6133      1.9633    
  1.5216      1.2475      1.1194      1.1271      1.2679      1.5465      1.9791      2.5984      3.4573      4.6279    
  6.1947      8.2416      10.835      14.008      17.740      21.936      26.398      30.814      34.766      37.788    
  39.468      39.554      38.032      35.128      31.244      26.846      22.360      18.115      14.321      11.085    
  8.4346      6.3432      4.7473      3.5650      2.7137      2.1242      1.7483      1.5595      1.5448      1.6351    
  1.9123      2.3988      3.1395      4.2064      5.6973      7.7260      10.407      13.837      18.078      23.132    
  28.895      35.107      41.315      46.883      51.096      53.325      53.210      50.772      46.407      40.762    
  34.547      28.380      22.691      17.720      13.559      10.199      7.5747      5.5852      4.1143      3.0464    
  2.2818      1.7452      1.3876      1.1814      1.1139      1.1814      1.3876      1.7452      2.2818      3.0464    
  4.1143      5.5852      7.5747      10.199      13.559      17.720      22.691      28.380      34.547      40.762    
  46.407      50.772      53.210      53.325      51.096      46.883      41.315      35.107      28.895      23.132    
  18.078      13.837      10.407      7.7260      5.6973      4.2064      3.1395      2.3988      1.9123      1.6351    
  1.5483      1.5595      1.7483      2.1242      2.7137      3.5650      4.7473      6.3432      8.4346      11.085    
  14.321      18.115      22.360      26.846      31.244      35.128      38.032      39.554      39.468      37.788    
  34.766      30.814      26.398      21.936      17.740      14.008      10.835      8.2416      6.1947      4.6279    
  3.4573      2.5984      1.9791      1.5465      1.2679      1.1271      1.1194      1.2475      1.5216      1.9633    
  2.6133      3.5401      4.8453      6.6611      9.1401      12.441      16.712      22.078      28.602      36.217    
  44.635      53.264      61.208      67.404      70.878      71.026      67.816      61.799      53.930      45.284    
  36.786      29.064      22.434      16.974      12.627      9.2675      6.7469      4.9080      3.6002      2.6933    
  2.0880      1.7187      1.5584      1.4933      1.5992      1.8743      2.3305      2.9957      3.9148      5.1443    
  6.7414      8.7476      11.172      13.979      17.071      20.284      23.383      26.077      28.068      29.103    
  29.042      27.893      25.813      23.064      19.947      16.746      13.686      10.922      8.5430      6.5770    
  5.0097      3.7971      2.8806      2.2008      1.7085      1.3693      1.1639      1.0853      1.1356      1.3240    
  1.6675      2.1971      2.9681      4.0716      5.6392      7.8397      10.869      14.938      20.267      27.063    
  35.478      45.490      56.754      68.464      79.354      87.899      92.693      92.868      88.381      80.029    
  69.193      57.420      46.027      35.868      27.326      20.433      15.038      10.923      7.8644      5.6489    
  4.0827      2.9996      2.2709      1.8081      1.5737      1.4367      1.4664      1.6519      1.9931      2.5025    
  3.2048      4.1355      5.3321      6.8214      8.6052      10.649      12.876      15.160      17.334      19.201    
  20.567      21.273      21.231      20.447      19.017      17.110      14.921      12.641      10.434      8.4175    
  6.6631      5.1984      4.0176      3.0929      2.3853      1.8553      1.4717      1.2150      1.0764      1.0560    
  1.1617      1.4092      1.8224      2.4419      3.3392      4.6306      6.4809      9.0984      12.728      17.645    
  24.160      32.594      43.214      56.063      70.723      86.115      100.51      111.83      118.16      118.33    
  112.31      101.16      86.767      71.250      56.404      43.373      32.616      24.102      17.555      12.630    
  9.0065      6.4006      4.5689      3.3067      2.4543      1.8997      1.5921      1.3894      1.3506      1.4574    
  1.7013      2.0831      2.6123      3.3073      4.1908      5.2787      6.5689      8.0336      9.6150      11.223    
  12.739      14.030      14.967      15.450      15.423      14.888      13.908      12.589      11.062      9.4551    
  7.8832      6.4338      5.1602      4.0846      3.2058      2.5083      1.9683      1.5610      1.2689      1.0839    
  1.0054      1.0385      1.1964      1.5007      1.9827      2.6924      3.7188      5.2055      7.3525      10.409    
  14.673      20.494      28.287      38.512      51.573      67.581      86.021      105.49      123.71      137.99    
  145.92      146.04      138.29      124.06      105.75      86.098      67.436      51.241      38.072      27.823    
  20.066      14.313      10.121      7.1290      5.0372      3.6015      2.6306      1.9892      1.6111      1.3502    
  1.2515      1.2904      1.4529      1.7319      2.1257      2.6401      3.2865      4.0729      4.9947      6.0297    
  7.1374      8.2560      9.3036      10.189      10.829      11.159      11.143      10.780      10.112      9.2078    
  8.1533      7.0340      5.9289      4.9004      3.9869      3.2042      2.5544      2.0316      1.6234      1.3152    
  1.0991     0.97575     0.95034      1.0319      1.2379      1.5961      2.1445      2.9432      4.0991      5.7845    
  8.2352      11.741      16.652      23.399      32.510      44.591      60.193      79.493      101.85      125.48    
  147.52      164.70      174.14      174.07      164.44      147.06      124.78      100.93      78.384      58.979    
  43.375      31.390      22.443      15.886      11.154      7.7983      5.4650      3.8699      2.7914      2.0717    
  1.6277      1.3174      1.1680      1.1500      1.2452      1.4419      1.7311      2.1097      2.5813      3.1483    
  3.8037      4.5295      5.2980      6.0683      6.7852      7.3873      7.8207      8.0448      8.0357      7.7924    
  7.3408      6.7277      6.0076      5.2358      4.4655      3.7409      3.0888      2.5204      2.0401      1.6493    
  1.3434      1.1147     0.96114     0.88970     0.91028      1.0349      1.2846      1.6927      2.3042      3.1892    
  4.4730      6.3565      9.1099      13.062      18.612      26.267      36.670      50.572      68.667      91.187    
  117.34      144.94      170.55      190.46      201.26      200.77      189.05      168.39      142.33      114.54    
  88.385      66.005      48.157      34.581      24.549      17.266      12.051      8.3752      5.8312      4.0988    
  2.9287      2.1425      1.6395      1.2894      1.0989      1.0345      1.0753      1.2067      1.4153      1.6926    
  2.0374      2.4484      2.9169      3.4272      3.9604      4.4902      4.9793      5.3869      5.6788      5.8308    
  5.8272      5.6655      5.3627      4.9496      4.4606      3.9298      3.3926      2.8805      2.4127      1.9973    
  1.6404      1.3483      1.1215     0.95581     0.85309     0.82458     0.88400      1.0460      1.3346      1.7882    
  2.4584      3.4259      4.8342      6.9111      9.9585      14.339      20.498      29.010      40.621      56.221    
  76.638      102.15      131.82      163.04      191.89      214.13      225.80      224.56      210.65      186.77    
  157.14      125.89      96.649      71.777      52.071      37.187      26.262      18.381      12.769      8.8326    
  6.1192      4.2779      3.0358      2.1973      1.6441      1.2643      1.0423     0.94210     0.94036      1.0205    
  1.1672      1.3692      1.6227      1.9244      2.2647      2.6295      3.0051      3.3744      3.7124      3.9912    
  4.1899      4.2946      4.2951      4.1884      3.9851      3.7057      3.3712      3.0021      2.6218      2.2539    
  1.9127      1.6046      1.3367      1.1179     0.95151     0.83517     0.77286     0.77884     0.86998      1.0635    
  1.3862      1.8804      2.6044      3.6496      5.1771      7.4385      10.764      15.545      22.266      31.558    
  44.259      61.384      83.879      112.07      144.89      179.36      211.04      235.05      247.01      244.62    
  228.38      201.42      168.53      134.33      102.65      75.915      54.870      39.055      27.494      19.180    
  13.279      9.1525      6.3180      4.4004      3.1083      2.2330      1.6400      1.2403     0.99627     0.87022    
 0.83711     0.87876     0.97871      1.1251      1.3133      1.5393      1.7933      2.0627      2.3367      2.6037    
  2.8458      3.0438      3.1845      3.2604      3.2647      3.1942      3.0554      2.8621      2.6272      2.3625    
  2.0846      1.8116      1.5550      1.3205      1.1157     0.95036     0.82860     0.74939     0.71801     0.75060    
 0.86656      1.0857      1.4374      1.9672      2.7396      3.8567      5.4957      7.9288      11.509      16.655    
  23.879      33.866      47.530      65.991      90.301      120.83      156.40      193.73      227.78      253.06    
  264.85      260.90      242.10      212.13      176.30      139.66      106.20      78.274      56.450      40.119    