   8   8   0   0
  0.1952341E+02  0.6163100E-09  0.3685050E-09  0.6925430E-09  0.5000000E-15
  1.000000000000000E-004
  CAR 
 F                                       
     16.99025692    -32.94650675  301     -5.79339151      1.00000000
    -32.947  0.0000E+00  0.0000E+00
    -32.780  0.0000E+00  0.0000E+00
    -32.614  0.0000E+00  0.0000E+00
    -32.447  0.0000E+00  0.0000E+00
    -32.281  0.0000E+00  0.0000E+00
    -32.114  0.0000E+00  0.0000E+00
    -31.948  0.0000E+00  0.0000E+00
    -31.781  0.0000E+00  0.0000E+00
    -31.615  0.0000E+00  0.0000E+00
    -31.448  0.0000E+00  0.0000E+00
    -31.282  0.0000E+00  0.0000E+00
    -31.115  0.0000E+00  0.0000E+00
    -30.949  0.1596E-14  0.2656E-15
    -30.783  0.1288E-02  0.2145E-03
    -30.616  0.2190E+02  0.3645E+01
    -30.450  0.2616E+02  0.8000E+01
    -30.283  0.8014E-03  0.8000E+01
    -30.117  0.0000E+00  0.8000E+01
    -29.950  0.0000E+00  0.8000E+01
    -29.784  0.0000E+00  0.8000E+01
    -29.617  0.0000E+00  0.8000E+01
    -29.451  0.0000E+00  0.8000E+01
    -29.284  0.0000E+00  0.8000E+01
    -29.118  0.0000E+00  0.8000E+01
    -28.952  0.0000E+00  0.8000E+01
    -28.785  0.0000E+00  0.8000E+01
    -28.619  0.0000E+00  0.8000E+01
    -28.452  0.0000E+00  0.8000E+01
    -28.286  0.0000E+00  0.8000E+01
    -28.119  0.0000E+00  0.8000E+01
    -27.953  0.0000E+00  0.8000E+01
    -27.786  0.0000E+00  0.8000E+01
    -27.620  0.0000E+00  0.8000E+01
    -27.453  0.0000E+00  0.8000E+01
    -27.287  0.0000E+00  0.8000E+01
    -27.121  0.0000E+00  0.8000E+01
    -26.954  0.0000E+00  0.8000E+01
    -26.788  0.0000E+00  0.8000E+01
    -26.621  0.0000E+00  0.8000E+01
    -26.455  0.0000E+00  0.8000E+01
    -26.288  0.0000E+00  0.8000E+01
    -26.122  0.0000E+00  0.8000E+01
    -25.955  0.0000E+00  0.8000E+01
    -25.789  0.0000E+00  0.8000E+01
    -25.622  0.0000E+00  0.8000E+01
    -25.456  0.0000E+00  0.8000E+01
    -25.290  0.0000E+00  0.8000E+01
    -25.123  0.0000E+00  0.8000E+01
    -24.957  0.0000E+00  0.8000E+01
    -24.790  0.1546E-04  0.8000E+01
    -24.624  0.3693E+01  0.8615E+01
    -24.457  0.3832E+02  0.1499E+02
    -24.291  0.6045E+01  0.1600E+02
    -24.124  0.8742E-04  0.1600E+02
    -23.958  0.0000E+00  0.1600E+02
    -23.791  0.0000E+00  0.1600E+02
    -23.625  0.0000E+00  0.1600E+02
    -23.459  0.0000E+00  0.1600E+02
    -23.292  0.0000E+00  0.1600E+02
    -23.126  0.0000E+00  0.1600E+02
    -22.959  0.0000E+00  0.1600E+02
    -22.793  0.0000E+00  0.1600E+02
    -22.626  0.0000E+00  0.1600E+02
    -22.460  0.0000E+00  0.1600E+02
    -22.293  0.0000E+00  0.1600E+02
    -22.127  0.0000E+00  0.1600E+02
    -21.960  0.0000E+00  0.1600E+02
    -21.794  0.0000E+00  0.1600E+02
    -21.628  0.0000E+00  0.1600E+02
    -21.461  0.0000E+00  0.1600E+02
    -21.295  0.0000E+00  0.1600E+02
    -21.128  0.0000E+00  0.1600E+02
    -20.962  0.0000E+00  0.1600E+02
    -20.795  0.0000E+00  0.1600E+02
    -20.629  0.0000E+00  0.1600E+02
    -20.462  0.0000E+00  0.1600E+02
    -20.296  0.0000E+00  0.1600E+02
    -20.129  0.0000E+00  0.1600E+02
    -19.963  0.0000E+00  0.1600E+02
    -19.796  0.0000E+00  0.1600E+02
    -19.630  0.0000E+00  0.1600E+02
    -19.464  0.0000E+00  0.1600E+02
    -19.297  0.0000E+00  0.1600E+02
    -19.131  0.0000E+00  0.1600E+02
    -18.964  0.0000E+00  0.1600E+02
    -18.798  0.0000E+00  0.1600E+02
    -18.631  0.0000E+00  0.1600E+02
    -18.465  0.0000E+00  0.1600E+02
    -18.298  0.0000E+00  0.1600E+02
    -18.132  0.0000E+00  0.1600E+02
    -17.965  0.0000E+00  0.1600E+02
    -17.799  0.0000E+00  0.1600E+02
    -17.633  0.0000E+00  0.1600E+02
    -17.466  0.0000E+00  0.1600E+02
    -17.300  0.0000E+00  0.1600E+02
    -17.133  0.0000E+00  0.1600E+02
    -16.967  0.0000E+00  0.1600E+02
    -16.800  0.0000E+00  0.1600E+02
    -16.634  0.0000E+00  0.1600E+02
    -16.467  0.0000E+00  0.1600E+02
    -16.301  0.0000E+00  0.1600E+02
    -16.134  0.0000E+00  0.1600E+02
    -15.968  0.0000E+00  0.1600E+02
    -15.802  0.0000E+00  0.1600E+02
    -15.635  0.0000E+00  0.1600E+02
    -15.469  0.0000E+00  0.1600E+02
    -15.302  0.0000E+00  0.1600E+02
    -15.136  0.0000E+00  0.1600E+02
    -14.969  0.0000E+00  0.1600E+02
    -14.803  0.0000E+00  0.1600E+02
    -14.636  0.0000E+00  0.1600E+02
    -14.470  0.0000E+00  0.1600E+02
    -14.303  0.0000E+00  0.1600E+02
    -14.137  0.0000E+00  0.1600E+02
    -13.971  0.0000E+00  0.1600E+02
    -13.804  0.0000E+00  0.1600E+02
    -13.638  0.0000E+00  0.1600E+02
    -13.471  0.0000E+00  0.1600E+02
    -13.305  0.0000E+00  0.1600E+02
    -13.138  0.0000E+00  0.1600E+02
    -12.972  0.0000E+00  0.1600E+02
    -12.805  0.0000E+00  0.1600E+02
    -12.639  0.5391E-13  0.1600E+02
    -12.472  0.1998E-02  0.1600E+02
    -12.306  0.4142E+01  0.1669E+02
    -12.140  0.1862E+02  0.1979E+02
    -11.973  0.1921E+02  0.2299E+02
    -11.807  0.6069E+01  0.2400E+02
    -11.640  0.1448E-01  0.2400E+02
    -11.474  0.3508E-11  0.2400E+02
    -11.307  0.0000E+00  0.2400E+02
    -11.141  0.0000E+00  0.2400E+02
    -10.974  0.0000E+00  0.2400E+02
    -10.808  0.0000E+00  0.2400E+02
    -10.641  0.0000E+00  0.2400E+02
    -10.475  0.0000E+00  0.2400E+02
    -10.309  0.0000E+00  0.2400E+02
    -10.142  0.0000E+00  0.2400E+02
     -9.976  0.2286E-05  0.2400E+02
     -9.809  0.3572E+00  0.2406E+02
     -9.643  0.1346E+02  0.2630E+02
     -9.476  0.2821E+02  0.3099E+02
     -9.310  0.4104E+02  0.3783E+02
     -9.143  0.1306E+02  0.4000E+02
     -8.977  0.3020E-02  0.4000E+02
     -8.810  0.0000E+00  0.4000E+02
     -8.644  0.0000E+00  0.4000E+02
     -8.477  0.0000E+00  0.4000E+02
     -8.311  0.0000E+00  0.4000E+02
     -8.145  0.0000E+00  0.4000E+02
     -7.978  0.0000E+00  0.4000E+02
     -7.812  0.0000E+00  0.4000E+02
     -7.645  0.0000E+00  0.4000E+02
     -7.479  0.0000E+00  0.4000E+02
     -7.312  0.0000E+00  0.4000E+02
     -7.146  0.0000E+00  0.4000E+02
     -6.979  0.0000E+00  0.4000E+02
     -6.813  0.0000E+00  0.4000E+02
     -6.646  0.3508E-08  0.4000E+02
     -6.480  0.9181E-01  0.4002E+02
     -6.314  0.1426E+02  0.4239E+02
     -6.147  0.5359E+02  0.5131E+02
     -5.981  0.2816E+02  0.5600E+02
     -5.814  0.1244E-01  0.5600E+02
     -5.648  0.0000E+00  0.5600E+02
     -5.481  0.0000E+00  0.5600E+02
     -5.315  0.0000E+00  0.5600E+02
     -5.148  0.0000E+00  0.5600E+02
     -4.982  0.0000E+00  0.5600E+02
     -4.815  0.0000E+00  0.5600E+02
     -4.649  0.0000E+00  0.5600E+02
     -4.483  0.0000E+00  0.5600E+02
     -4.316  0.0000E+00  0.5600E+02
     -4.150  0.0000E+00  0.5600E+02
     -3.983  0.0000E+00  0.5600E+02
     -3.817  0.0000E+00  0.5600E+02
     -3.650  0.0000E+00  0.5600E+02
     -3.484  0.1435E-11  0.5600E+02
     -3.317  0.3837E-02  0.5600E+02
     -3.151  0.2103E+01  0.5635E+02
     -2.984  0.1000E+02  0.5802E+02
     -2.818  0.1940E+02  0.6124E+02
     -2.652  0.1366E+02  0.6352E+02
     -2.485  0.2895E+01  0.6400E+02
     -2.319  0.3007E-03  0.6400E+02
     -2.152  0.0000E+00  0.6400E+02
     -1.986  0.0000E+00  0.6400E+02
     -1.819  0.0000E+00  0.6400E+02
     -1.653  0.0000E+00  0.6400E+02
     -1.486  0.0000E+00  0.6400E+02
     -1.320  0.0000E+00  0.6400E+02
     -1.153  0.0000E+00  0.6400E+02
     -0.987  0.0000E+00  0.6400E+02
     -0.821  0.0000E+00  0.6400E+02
     -0.654  0.0000E+00  0.6400E+02
     -0.488  0.0000E+00  0.6400E+02
     -0.321  0.0000E+00  0.6400E+02
     -0.155  0.0000E+00  0.6400E+02
      0.012  0.0000E+00  0.6400E+02
      0.178  0.0000E+00  0.6400E+02
      0.345  0.0000E+00  0.6400E+02
      0.511  0.0000E+00  0.6400E+02
      0.678  0.0000E+00  0.6400E+02
      0.844  0.0000E+00  0.6400E+02
      1.010  0.0000E+00  0.6400E+02
      1.177  0.0000E+00  0.6400E+02
      1.343  0.0000E+00  0.6400E+02
      1.510  0.0000E+00  0.6400E+02
      1.676  0.0000E+00  0.6400E+02
      1.843  0.0000E+00  0.6400E+02
      2.009  0.0000E+00  0.6400E+02
      2.176  0.0000E+00  0.6400E+02
      2.342  0.2657E-13  0.6400E+02
      2.509  0.2471E-03  0.6400E+02
      2.675  0.9068E-01  0.6402E+02
      2.842  0.2359E+00  0.6405E+02
      3.008  0.5838E+00  0.6415E+02
      3.174  0.6023E+00  0.6425E+02
      3.341  0.5570E+00  0.6434E+02
      3.507  0.8283E+00  0.6448E+02
      3.674  0.1026E+01  0.6465E+02
      3.840  0.9999E+00  0.6482E+02
      4.007  0.9887E+00  0.6498E+02
      4.173  0.1309E+01  0.6520E+02
      4.340  0.9891E+00  0.6537E+02
      4.506  0.1321E+01  0.6559E+02
      4.673  0.2113E+01  0.6594E+02
      4.839  0.1412E+01  0.6617E+02
      5.005  0.1473E+01  0.6642E+02
      5.172  0.2003E+01  0.6675E+02
      5.338  0.1714E+01  0.6704E+02
      5.505  0.2083E+01  0.6738E+02
      5.671  0.1793E+01  0.6768E+02
      5.838  0.2467E+01  0.6809E+02
      6.004  0.2579E+01  0.6852E+02
      6.171  0.2009E+01  0.6886E+02
      6.337  0.2810E+01  0.6932E+02
      6.504  0.2608E+01  0.6976E+02
      6.670  0.2798E+01  0.7022E+02
      6.836  0.2386E+01  0.7062E+02
      7.003  0.2907E+01  0.7111E+02
      7.169  0.3351E+01  0.7166E+02
      7.336  0.2884E+01  0.7214E+02
      7.502  0.2360E+01  0.7254E+02
      7.669  0.3122E+01  0.7306E+02
      7.835  0.3475E+01  0.7363E+02
      8.002  0.3286E+01  0.7418E+02
      8.168  0.3530E+01  0.7477E+02
      8.335  0.3539E+01  0.7536E+02
      8.501  0.3867E+01  0.7600E+02
      8.667  0.3595E+01  0.7660E+02
      8.834  0.3666E+01  0.7721E+02
      9.000  0.3428E+01  0.7778E+02
      9.167  0.2884E+01  0.7826E+02
      9.333  0.3900E+01  0.7891E+02
      9.500  0.3169E+01  0.7944E+02
      9.666  0.3652E+01  0.8005E+02
      9.833  0.2627E+01  0.8048E+02
      9.999  0.4441E+01  0.8122E+02
     10.166  0.3733E+01  0.8184E+02
     10.332  0.3375E+01  0.8241E+02
     10.498  0.3839E+01  0.8304E+02
     10.665  0.3223E+01  0.8358E+02
     10.831  0.3144E+01  0.8410E+02
     10.998  0.2639E+01  0.8454E+02
     11.164  0.3736E+01  0.8517E+02
     11.331  0.3616E+01  0.8577E+02
     11.497  0.3815E+01  0.8640E+02
     11.664  0.3134E+01  0.8692E+02
     11.830  0.3435E+01  0.8750E+02
     11.997  0.3432E+01  0.8807E+02
     12.163  0.3189E+01  0.8860E+02
     12.329  0.2537E+01  0.8902E+02
     12.496  0.3571E+01  0.8961E+02
     12.662  0.3432E+01  0.9019E+02
     12.829  0.2210E+01  0.9055E+02
     12.995  0.2968E+01  0.9105E+02
     13.162  0.3038E+01  0.9155E+02
     13.328  0.3096E+01  0.9207E+02
     13.495  0.3456E+01  0.9264E+02
     13.661  0.4701E+01  0.9343E+02
     13.828  0.3453E+01  0.9400E+02
     13.994  0.4427E+01  0.9474E+02
     14.161  0.2483E+01  0.9515E+02
     14.327  0.2187E+01  0.9552E+02
     14.493  0.1743E+01  0.9581E+02
     14.660  0.9974E+00  0.9597E+02
     14.826  0.1687E+00  0.9600E+02
     14.993  0.1284E-03  0.9600E+02
     15.159  0.0000E+00  0.9600E+02
     15.326  0.0000E+00  0.9600E+02
     15.492  0.0000E+00  0.9600E+02
     15.659  0.0000E+00  0.9600E+02
     15.825  0.0000E+00  0.9600E+02
     15.992  0.0000E+00  0.9600E+02
     16.158  0.0000E+00  0.9600E+02
     16.324  0.0000E+00  0.9600E+02
     16.491  0.0000E+00  0.9600E+02
     16.657  0.0000E+00  0.9600E+02
     16.824  0.0000E+00  0.9600E+02
     16.990  0.0000E+00  0.9600E+02
