    8    8    1    1
  0.1952341E+02  0.6163100E-09  0.3685050E-09  0.6925430E-09  0.5000000E-15
  1.000000000000000E-004
  CAR 
 F                                       
     56    170     48
 
  0.0000000E+00  0.0000000E+00  0.0000000E+00  0.1953125E-02
      1        -30.676654   1.000000
      2        -30.638450   1.000000
      3        -30.595894   1.000000
      4        -30.570695   1.000000
      5        -24.651516   1.000000
      6        -24.615436   1.000000
      7        -24.425496   1.000000
      8        -24.424997   1.000000
      9        -12.389118   1.000000
     10        -12.313681   1.000000
     11        -11.896289   1.000000
     12        -11.869832   1.000000
     13         -9.837773   1.000000
     14         -9.568824   1.000000
     15         -9.449078   1.000000
     16         -9.351490   1.000000
     17         -9.303484   1.000000
     18         -9.275893   1.000000
     19         -9.257810   1.000000
     20         -9.229237   1.000000
     21         -6.461114   1.000000
     22         -6.407176   1.000000
     23         -6.360712   1.000000
     24         -6.140408   1.000000
     25         -6.136158   1.000000
     26         -6.105314   1.000000
     27         -6.076973   1.000000
     28         -6.061597   1.000000
     29         -3.253624   0.000000
     30         -3.102937   0.000000
     31         -2.626933   0.000000
     32         -2.589779   0.000000
     33          2.590234   0.000000
     34          5.207238   0.000000
     35          6.026271   0.000000
     36          6.133668   0.000000
     37          7.365133   0.000000
     38          7.766007   0.000000
     39          8.736994   0.000000
     40          9.097745   0.000000
     41         11.070415   0.000000
     42         12.434571   0.000000
     43         12.621094   0.000000
     44         13.469723   0.000000
     45         13.623125   0.000000
     46         13.932289   0.000000
     47         13.993891   0.000000
     48         14.597068   0.000000
 
  0.1250000E+00  0.5484853E-32  0.0000000E+00  0.3906250E-02
      1        -30.675156   1.000000
      2        -30.639856   1.000000
      3        -30.594966   1.000000
      4        -30.571560   1.000000
      5        -24.650167   1.000000
      6        -24.616840   1.000000
      7        -24.425442   1.000000
      8        -24.424904   1.000000
      9        -12.386516   1.000000
     10        -12.316874   1.000000
     11        -11.895265   1.000000
     12        -11.870809   1.000000
     13         -9.817355   1.000000
     14         -9.556781   1.000000
     15         -9.445440   1.000000
     16         -9.355276   1.000000
     17         -9.301961   1.000000
     18         -9.298479   1.000000
     19         -9.259949   1.000000
     20         -9.242960   1.000000
     21         -6.449380   1.000000
     22         -6.404869   1.000000
     23         -6.362007   1.000000
     24         -6.152996   1.000000
     25         -6.134017   1.000000
     26         -6.104088   1.000000
     27         -6.078769   1.000000
     28         -6.063169   1.000000
     29         -3.247059   0.000000
     30         -3.107916   0.000000
     31         -2.625502   0.000000
     32         -2.591022   0.000000
     33          2.671493   0.000000
     34          5.274063   0.000000
     35          5.733833   0.000000
     36          6.086415   0.000000
     37          7.538371   0.000000
     38          7.806421   0.000000
     39          8.509956   0.000000
     40          9.364040   0.000000
     41         11.310241   0.000000
     42         12.453300   0.000000
     43         12.602878   0.000000
     44         13.465028   0.000000
     45         13.599776   0.000000
     46         13.906083   0.000000
     47         13.967951   0.000000
     48         14.015906   0.000000
 
  0.2500000E+00  0.1096971E-31  0.0000000E+00  0.3906250E-02
      1        -30.670962   1.000000
      2        -30.644158   1.000000
      3        -30.592327   1.000000
      4        -30.574387   1.000000
      5        -24.646171   1.000000
      6        -24.620807   1.000000
      7        -24.425313   1.000000
      8        -24.424906   1.000000
      9        -12.379051   1.000000
     10        -12.325848   1.000000
     11        -11.892414   1.000000
     12        -11.873670   1.000000
     13         -9.758880   1.000000
     14         -9.522134   1.000000
     15         -9.435048   1.000000
     16         -9.366159   1.000000
     17         -9.362062   1.000000
     18         -9.297525   1.000000
     19         -9.282840   1.000000
     20         -9.264648   1.000000
     21         -6.416466   1.000000
     22         -6.397779   1.000000
     23         -6.365961   1.000000
     24         -6.188621   1.000000
     25         -6.127962   1.000000
     26         -6.101252   1.000000
     27         -6.083283   1.000000
     28         -6.067575   1.000000
     29         -3.228873   0.000000
     30         -3.122584   0.000000
     31         -2.621494   0.000000
     32         -2.595052   0.000000
     33          2.910135   0.000000
     34          5.062086   0.000000
     35          5.468200   0.000000
     36          6.266794   0.000000
     37          7.088610   0.000000
     38          8.026696   0.000000
     39          8.608763   0.000000
     40          9.900819   0.000000
     41         11.889368   0.000000
     42         12.417466   0.000000
     43         12.503260   0.000000
     44         12.877321   0.000000
     45         12.996542   0.000000
     46         13.533971   0.000000
     47         13.831385   0.000000
     48         13.913797   0.000000
 
  0.3750000E+00  0.1337307E-31  0.0000000E+00  0.3906250E-02
      1        -30.664813   1.000000
      2        -30.650433   1.000000
      3        -30.588138   1.000000
      4        -30.578466   1.000000
      5        -24.640363   1.000000
      6        -24.626438   1.000000
      7        -24.425317   1.000000
      8        -24.425043   1.000000
      9        -12.367577   1.000000
     10        -12.338840   1.000000
     11        -11.888100   1.000000
     12        -11.877968   1.000000
     13         -9.670375   1.000000
     14         -9.469323   1.000000
     15         -9.455933   1.000000
     16         -9.419395   1.000000
     17         -9.382045   1.000000
     18         -9.339804   1.000000
     19         -9.290604   1.000000
     20         -9.272930   1.000000
     21         -6.391561   1.000000
     22         -6.372571   1.000000
     23         -6.362903   1.000000
     24         -6.241372   1.000000
     25         -6.119073   1.000000
     26         -6.101417   1.000000
     27         -6.085672   1.000000
     28         -6.073994   1.000000
     29         -3.202705   0.000000
     30         -3.145219   0.000000
     31         -2.615484   0.000000
     32         -2.601107   0.000000
     33          3.291913   0.000000
     34          4.396460   0.000000
     35          5.772303   0.000000
     36          6.566989   0.000000
     37          6.610091   0.000000
     38          7.483602   0.000000
     39          9.513316   0.000000
     40         10.544409   0.000000
     41         11.509858   0.000000
     42         12.089390   0.000000
     43         12.567534   0.000000
     44         12.649109   0.000000
     45         12.679175   0.000000
     46         13.569849   0.000000
     47         13.729437   0.000000
     48         14.132398   0.000000
 
  0.5000000E+00  0.2193941E-31  0.0000000E+00  0.1953125E-02
      1        -30.657604   1.000000
      2        -30.657604   1.000000
      3        -30.583344   1.000000
      4        -30.583344   1.000000
      5        -24.633352   1.000000
      6        -24.633352   1.000000
      7        -24.425108   1.000000
      8        -24.425108   1.000000
      9        -12.353514   1.000000
     10        -12.353514   1.000000
     11        -11.883023   1.000000
     12        -11.883023   1.000000
     13         -9.564226   1.000000
     14         -9.564226   1.000000
     15         -9.405451   1.000000
     16         -9.405451   1.000000
     17         -9.400793   1.000000
     18         -9.400793   1.000000
     19         -9.282005   1.000000
     20         -9.282005   1.000000
     21         -6.381363   1.000000
     22         -6.381363   1.000000
     23         -6.302756   1.000000
     24         -6.302756   1.000000
     25         -6.109090   1.000000
     26         -6.109090   1.000000
     27         -6.080981   1.000000
     28         -6.080981   1.000000
     29         -3.173134   0.000000
     30         -3.173134   0.000000
     31         -2.608331   0.000000
     32         -2.608331   0.000000
     33          3.795874   0.000000
     34          3.795874   0.000000
     35          6.161595   0.000000
     36          6.161595   0.000000
     37          6.980174   0.000000
     38          6.980174   0.000000
     39         10.485697   0.000000
     40         10.485697   0.000000
     41         11.272156   0.000000
     42         11.272156   0.000000
     43         12.626681   0.000000
     44         12.626681   0.000000
     45         13.516150   0.000000
     46         13.516150   0.000000
     47         13.634811   0.000000
     48         13.634811   0.000000
 
  0.0000000E+00  0.1250000E+00  0.0000000E+00  0.3906250E-02
      1        -30.670226   1.000000
      2        -30.634475   1.000000
      3        -30.595193   1.000000
      4        -30.572331   1.000000
      5        -24.643874   1.000000
      6        -24.608906   1.000000
      7        -24.435087   1.000000
      8        -24.433204   1.000000
      9        -12.375671   1.000000
     10        -12.301236   1.000000
     11        -11.917954   1.000000
     12        -11.889041   1.000000
     13         -9.809404   1.000000
     14         -9.552826   1.000000
     15         -9.482056   1.000000
     16         -9.391922   1.000000
     17         -9.341366   1.000000
     18         -9.302302   1.000000
     19         -9.281299   1.000000
     20         -9.246197   1.000000
     21         -6.446319   1.000000
     22         -6.390886   1.000000
     23         -6.342032   1.000000
     24         -6.139964   1.000000
     25         -6.138385   1.000000
     26         -6.114876   1.000000
     27         -6.091134   1.000000
     28         -6.066532   1.000000
     29         -3.226515   0.000000
     30         -3.080690   0.000000
     31         -2.644517   0.000000
     32         -2.604983   0.000000
     33          2.806221   0.000000
     34          5.411879   0.000000
     35          6.155781   0.000000
     36          6.225034   0.000000
     37          7.559057   0.000000
     38          7.875665   0.000000
     39          8.817750   0.000000
     40          9.023770   0.000000
     41         11.140707   0.000000
     42         11.375932   0.000000
     43         11.988997   0.000000
     44         12.620808   0.000000
     45         13.420632   0.000000
     46         13.734233   0.000000
     47         14.260161   0.000000
     48         14.453526   0.000000
 
  0.1250000E+00  0.1250000E+00  0.0000000E+00  0.7812500E-02
      1        -30.668872   1.000000
      2        -30.635815   1.000000
      3        -30.594328   1.000000
      4        -30.573053   1.000000
      5        -24.642468   1.000000
      6        -24.610266   1.000000
      7        -24.435079   1.000000
      8        -24.433193   1.000000
      9        -12.373129   1.000000
     10        -12.304400   1.000000
     11        -11.916838   1.000000
     12        -11.890134   1.000000
     13         -9.790964   1.000000
     14         -9.548146   1.000000
     15         -9.472330   1.000000
     16         -9.398883   1.000000
     17         -9.339103   1.000000
     18         -9.324734   1.000000
     19         -9.281724   1.000000
     20         -9.254857   1.000000
     21         -6.435436   1.000000
     22         -6.388764   1.000000
     23         -6.343663   1.000000
     24         -6.154207   1.000000
     25         -6.136258   1.000000
     26         -6.112355   1.000000
     27         -6.091357   1.000000
     28         -6.068272   1.000000
     29         -3.220150   0.000000
     30         -3.085481   0.000000
     31         -2.642976   0.000000
     32         -2.606493   0.000000
     33          2.885108   0.000000
     34          5.476134   0.000000
     35          5.858377   0.000000
     36          6.215921   0.000000
     37          7.649020   0.000000
     38          7.971028   0.000000
     39          8.608939   0.000000
     40          9.237332   0.000000
     41         11.249166   0.000000
     42         11.533442   0.000000
     43         11.842156   0.000000
     44         12.575283   0.000000
     45         13.504998   0.000000
     46         13.525679   0.000000
     47         13.881532   0.000000
     48         14.580090   0.000000
 
  0.2500000E+00  0.1250000E+00  0.0000000E+00  0.7812500E-02
      1        -30.665028   1.000000
      2        -30.639757   1.000000
      3        -30.591832   1.000000
      4        -30.575553   1.000000
      5        -24.638769   1.000000
      6        -24.614071   1.000000
      7        -24.434828   1.000000
      8        -24.433465   1.000000
      9        -12.365751   1.000000
     10        -12.313250   1.000000
     11        -11.913705   1.000000
     12        -11.893245   1.000000
     13         -9.738202   1.000000
     14         -9.533658   1.000000
     15         -9.445507   1.000000
     16         -9.418495   1.000000
     17         -9.382768   1.000000
     18         -9.332547   1.000000
     19         -9.289033   1.000000
     20         -9.278580   1.000000
     21         -6.404698   1.000000
     22         -6.382368   1.000000
     23         -6.348493   1.000000
     24         -6.190587   1.000000
     25         -6.130296   1.000000
     26         -6.107363   1.000000
     27         -6.093844   1.000000
     28         -6.073185   1.000000
     29         -3.202499   0.000000
     30         -3.099646   0.000000
     31         -2.638700   0.000000
     32         -2.610779   0.000000
     33          3.117079   0.000000
     34          5.214700   0.000000
     35          5.662957   0.000000
     36          6.396925   0.000000
     37          7.224333   0.000000
     38          8.141861   0.000000
     39          8.731175   0.000000
     40          9.627185   0.000000
     41         11.479168   0.000000
     42         11.519235   0.000000
     43         11.944486   0.000000
     44         12.254030   0.000000
     45         12.831871   0.000000
     46         13.726434   0.000000
     47         13.968107   0.000000
     48         14.353822   0.000000
 
  0.3750000E+00  0.1250000E+00  0.0000000E+00  0.7812500E-02
      1        -30.659128   1.000000
      2        -30.645539   1.000000
      3        -30.587969   1.000000
      4        -30.579207   1.000000
      5        -24.633016   1.000000
      6        -24.619874   1.000000
      7        -24.434363   1.000000
      8        -24.433654   1.000000
      9        -12.354390   1.000000
     10        -12.326042   1.000000
     11        -11.908988   1.000000
     12        -11.897905   1.000000
     13         -9.658585   1.000000
     14         -9.509775   1.000000
     15         -9.466837   1.000000
     16         -9.446768   1.000000
     17         -9.406833   1.000000
     18         -9.322432   1.000000
     19         -9.318707   1.000000
     20         -9.296941   1.000000
     21         -6.376183   1.000000
     22         -6.356086   1.000000
     23         -6.355056   1.000000
     24         -6.241447   1.000000
     25         -6.121650   1.000000
     26         -6.104738   1.000000
     27         -6.095664   1.000000
     28         -6.080477   1.000000
     29         -3.177024   0.000000
     30         -3.121458   0.000000
     31         -2.632252   0.000000
     32         -2.617073   0.000000
     33          3.488986   0.000000
     34          4.567123   0.000000
     35          5.955635   0.000000
     36          6.698432   0.000000
     37          6.763528   0.000000
     38          7.613102   0.000000
     39          9.579904   0.000000
     40         10.063302   0.000000
     41         11.015897   0.000000
     42         11.420108   0.000000
     43         11.849784   0.000000
     44         12.485096   0.000000
     45         12.533200   0.000000
     46         13.860978   0.000000
     47         13.988633   0.000000
     48         14.050437   0.000000
 
  0.5000000E+00  0.1250000E+00  0.0000000E+00  0.3906250E-02
      1        -30.652298   1.000000
      2        -30.652298   1.000000
      3        -30.583599   1.000000
      4        -30.583599   1.000000
      5        -24.626465   1.000000
      6        -24.626465   1.000000
      7        -24.433949   1.000000
      8        -24.433949   1.000000
      9        -12.340497   1.000000
     10        -12.340497   1.000000
     11        -11.903453   1.000000
     12        -11.903453   1.000000
     13         -9.563451   1.000000
     14         -9.563451   1.000000
     15         -9.479253   1.000000
     16         -9.479253   1.000000
     17         -9.362369   1.000000
     18         -9.362369   1.000000
     19         -9.310031   1.000000
     20         -9.310031   1.000000
     21         -6.365592   1.000000
     22         -6.365592   1.000000
     23         -6.299242   1.000000
     24         -6.299242   1.000000
     25         -6.112066   1.000000
     26         -6.112066   1.000000
     27         -6.088853   1.000000
     28         -6.088853   1.000000
     29         -3.148542   0.000000
     30         -3.148542   0.000000
     31         -2.624633   0.000000
     32         -2.624633   0.000000
     33          3.980792   0.000000
     34          3.980792   0.000000
     35          6.330759   0.000000
     36          6.330759   0.000000
     37          7.112357   0.000000
     38          7.112357   0.000000
     39         10.485008   0.000000
     40         10.485008   0.000000
     41         10.530964   0.000000
     42         10.530964   0.000000
     43         12.180259   0.000000
     44         12.180259   0.000000
     45         13.220097   0.000000
     46         13.220097   0.000000
     47         14.043716   0.000000
     48         14.043716   0.000000
 
  0.0000000E+00  0.2500000E+00  0.0000000E+00  0.3906250E-02
      1        -30.653099   1.000000
      2        -30.623945   1.000000
      3        -30.594051   1.000000
      4        -30.577668   1.000000
      5        -24.621310   1.000000
      6        -24.590652   1.000000
      7        -24.461966   1.000000
      8        -24.456185   1.000000
      9        -12.334650   1.000000
     10        -12.263471   1.000000
     11        -11.979787   1.000000
     12        -11.943894   1.000000
     13         -9.730746   1.000000
     14         -9.553036   1.000000
     15         -9.511199   1.000000
     16         -9.482556   1.000000
     17         -9.430165   1.000000
     18         -9.410072   1.000000
     19         -9.299200   1.000000
     20         -9.297377   1.000000
     21         -6.404649   1.000000
     22         -6.351345   1.000000
     23         -6.298216   1.000000
     24         -6.147950   1.000000
     25         -6.147700   1.000000
     26         -6.138067   1.000000
     27         -6.131149   1.000000
     28         -6.082372   1.000000
     29         -3.145899   0.000000
     30         -3.016261   0.000000
     31         -2.696538   0.000000
     32         -2.650178   0.000000
     33          3.423855   0.000000
     34          6.000208   0.000000
     35          6.509251   0.000000
     36          6.541778   0.000000
     37          7.936164   0.000000
     38          8.047234   0.000000
     39          8.709800   0.000000
     40          9.066653   0.000000
     41         10.161382   0.000000
     42         10.280318   0.000000
     43         11.266941   0.000000
     44         12.240535   0.000000
     45         12.893939   0.000000
     46         12.949255   0.000000
     47         13.028800   0.000000
     48         13.288733   0.000000
 
  0.1250000E+00  0.2500000E+00  0.0000000E+00  0.7812500E-02
      1        -30.652012   1.000000
      2        -30.625037   1.000000
      3        -30.593435   1.000000
      4        -30.578301   1.000000
      5        -24.620283   1.000000
      6        -24.591756   1.000000
      7        -24.461655   1.000000
      8        -24.456495   1.000000
      9        -12.332199   1.000000
     10        -12.266454   1.000000
     11        -11.978422   1.000000
     12        -11.945260   1.000000
     13         -9.719321   1.000000
     14         -9.571275   1.000000
     15         -9.493556   1.000000
     16         -9.482533   1.000000
     17         -9.424775   1.000000
     18         -9.424231   1.000000
     19         -9.303659   1.000000
     20         -9.295465   1.000000
     21         -6.396217   1.000000
     22         -6.350001   1.000000
     23         -6.301042   1.000000
     24         -6.163084   1.000000
     25         -6.145620   1.000000
     26         -6.141990   1.000000
     27         -6.119943   1.000000
     28         -6.084517   1.000000
     29         -3.140259   0.000000
     30         -3.020488   0.000000
     31         -2.694801   0.000000
     32         -2.651937   0.000000
     33          3.496325   0.000000
     34          6.056317   0.000000
     35          6.218376   0.000000
     36          6.603224   0.000000
     37          7.852021   0.000000
     38          8.332661   0.000000
     39          8.616840   0.000000
     40          8.994914   0.000000
     41         10.154448   0.000000
     42         10.236920   0.000000
     43         11.390102   0.000000
     44         11.986081   0.000000
     45         12.690453   0.000000
     46         13.159407   0.000000
     47         13.223925   0.000000
     48         13.456865   0.000000
 
  0.2500000E+00  0.2500000E+00  0.0000000E+00  0.7812500E-02
      1        -30.648864   1.000000
      2        -30.628318   1.000000
      3        -30.591582   1.000000
      4        -30.580069   1.000000
      5        -24.616938   1.000000
      6        -24.595209   1.000000
      7        -24.461085   1.000000
      8        -24.456903   1.000000
      9        -12.325085   1.000000
     10        -12.274849   1.000000
     11        -11.974538   1.000000
     12        -11.949138   1.000000
     13         -9.686724   1.000000
     14         -9.588240   1.000000
     15         -9.520459   1.000000
     16         -9.463932   1.000000
     17         -9.436402   1.000000
     18         -9.406733   1.000000
     19         -9.314412   1.000000
     20         -9.298903   1.000000
     21         -6.372071   1.000000
     22         -6.345844   1.000000
     23         -6.308630   1.000000
     24         -6.198896   1.000000
     25         -6.139296   1.000000
     26         -6.134643   1.000000
     27         -6.114466   1.000000
     28         -6.090749   1.000000
     29         -3.124499   0.000000
     30         -3.033042   0.000000
     31         -2.689719   0.000000
     32         -2.656846   0.000000
     33          3.710019   0.000000
     34          5.651735   0.000000
     35          6.219692   0.000000
     36          6.788174   0.000000
     37          7.578770   0.000000
     38          8.409061   0.000000
     39          8.757885   0.000000
     40          8.993374   0.000000
     41          9.845940   0.000000
     42         10.458096   0.000000
     43         11.512185   0.000000
     44         11.787646   0.000000
     45         12.150362   0.000000
     46         13.569068   0.000000
     47         13.614793   0.000000
     48         13.992558   0.000000
 
  0.3750000E+00  0.2500000E+00  0.0000000E+00  0.7812500E-02
      1        -30.644064   1.000000
      2        -30.633055   1.000000
      3        -30.588785   1.000000
      4        -30.582739   1.000000
      5        -24.611848   1.000000
      6        -24.600178   1.000000
      7        -24.460199   1.000000
      8        -24.457833   1.000000
      9        -12.314183   1.000000
     10        -12.287029   1.000000
     11        -11.968719   1.000000
     12        -11.954957   1.000000
     13         -9.637788   1.000000
     14         -9.590176   1.000000
     15         -9.551680   1.000000
     16         -9.518128   1.000000
     17         -9.394122   1.000000
     18         -9.377171   1.000000
     19         -9.334245   1.000000
     20         -9.313567   1.000000
     21         -6.339994   1.000000
     22         -6.334148   1.000000
     23         -6.318971   1.000000
     24         -6.242920   1.000000
     25         -6.130709   1.000000
     26         -6.123851   1.000000
     27         -6.115933   1.000000
     28         -6.100237   1.000000
     29         -3.101895   0.000000
     30         -3.052581   0.000000
     31         -2.682097   0.000000
     32         -2.664315   0.000000
     33          4.054255   0.000000
     34          5.056443   0.000000
     35          6.477205   0.000000
     36          7.094799   0.000000
     37          7.193796   0.000000
     38          7.995858   0.000000
     39          8.847855   0.000000
     40          9.473393   0.000000
     41          9.641064   0.000000
     42         10.752186   0.000000
     43         10.949535   0.000000
     44         11.581102   0.000000
     45         12.429742   0.000000
     46         13.927867   0.000000
     47         14.000040   0.000000
     48         14.063819   0.000000
 
  0.5000000E+00  0.2500000E+00  0.0000000E+00  0.3906250E-02
      1        -30.638502   1.000000
      2        -30.638502   1.000000
      3        -30.585792   1.000000
      4        -30.585792   1.000000
      5        -24.606139   1.000000
      6        -24.606139   1.000000
      7        -24.459021   1.000000
      8        -24.459021   1.000000
      9        -12.300867   1.000000
     10        -12.300867   1.000000
     11        -11.961849   1.000000
     12        -11.961849   1.000000
     13         -9.580994   1.000000
     14         -9.580994   1.000000
     15         -9.574894   1.000000
     16         -9.574894   1.000000
     17         -9.361540   1.000000
     18         -9.361540   1.000000
     19         -9.341206   1.000000
     20         -9.341206   1.000000
     21         -6.329805   1.000000
     22         -6.329805   1.000000
     23         -6.290120   1.000000
     24         -6.290120   1.000000
     25         -6.122138   1.000000
     26         -6.122138   1.000000
     27         -6.111776   1.000000
     28         -6.111776   1.000000
     29         -3.076644   0.000000
     30         -3.076644   0.000000
     31         -2.673195   0.000000
     32         -2.673195   0.000000
     33          4.511383   0.000000
     34          4.511383   0.000000
     35          6.810133   0.000000
     36          6.810133   0.000000
     37          7.510554   0.000000
     38          7.510554   0.000000
     39          9.121160   0.000000
     40          9.121160   0.000000
     41         10.310862   0.000000
     42         10.310862   0.000000
     43         11.115585   0.000000
     44         11.115585   0.000000
     45         13.225964   0.000000
     46         13.225964   0.000000
     47         14.126469   0.000000
     48         14.126469   0.000000
 
  0.0000000E+00  0.3750000E+00  0.0000000E+00  0.3906250E-02
      1        -30.629878   1.000000
      2        -30.611271   1.000000
      3        -30.594959   1.000000
      4        -30.589108   1.000000
      5        -24.586884   1.000000
      6        -24.562218   1.000000
      7        -24.500892   1.000000
      8        -24.489495   1.000000
      9        -12.265573   1.000000
     10        -12.200328   1.000000
     11        -12.071051   1.000000
     12        -12.025074   1.000000
     13         -9.625595   1.000000
     14         -9.598465   1.000000
     15         -9.560749   1.000000
     16         -9.532640   1.000000
     17         -9.525987   1.000000
     18         -9.442461   1.000000
     19         -9.381876   1.000000
     20         -9.332951   1.000000
     21         -6.343370   1.000000
     22         -6.302709   1.000000
     23         -6.249332   1.000000
     24         -6.203280   1.000000
     25         -6.188653   1.000000
     26         -6.169763   1.000000
     27         -6.133196   1.000000
     28         -6.104704   1.000000
     29         -3.025648   0.000000
     30         -2.921347   0.000000
     31         -2.781817   0.000000
     32         -2.722638   0.000000
     33          4.372946   0.000000
     34          6.889091   0.000000
     35          6.897159   0.000000
     36          7.011746   0.000000
     37          7.168256   0.000000
     38          8.397903   0.000000
     39          8.895471   0.000000
     40          8.928402   0.000000
     41          9.349507   0.000000
     42          9.508198   0.000000
     43         11.161105   0.000000
     44         11.195017   0.000000
     45         11.365389   0.000000
     46         12.367148   0.000000
     47         12.742172   0.000000
     48         13.366968   0.000000
 
  0.1250000E+00  0.3750000E+00  0.0000000E+00  0.7812500E-02
      1        -30.629218   1.000000
      2        -30.611953   1.000000
      3        -30.594802   1.000000
      4        -30.589206   1.000000
      5        -24.586021   1.000000
      6        -24.563088   1.000000
      7        -24.500393   1.000000
      8        -24.489796   1.000000