 DBCSR| CPU Multiplication driver                                           BLAS (U)
 DBCSR| Multrec recursion limit                                              512 (U)
 DBCSR| Multiplication stack size                                           1000 (D)
 DBCSR| Maximum elements for images                                    UNLIMITED (U)
 DBCSR| Multiplicative factor virtual images                                   1 (U)
 DBCSR| Use multiplication densification                                       T (D)
 DBCSR| Multiplication size stacks                                             3 (U)
 DBCSR| Use memory pool for CPU allocation                                     F (U)
 DBCSR| Number of 3D layers                                               SINGLE (U)
 DBCSR| Use MPI memory allocation                                              F (U)
 DBCSR| Use RMA algorithm                                                      F (U)
 DBCSR| Use Communication thread                                               T (U)
 DBCSR| Communication thread load                                             45 (D)
 DBCSR| MPI: My process id                                                     0
 DBCSR| MPI: Number of processes                                               8
 DBCSR| OMP: Current number of threads                                        12
 DBCSR| OMP: Max number of threads                                            12
 DBCSR| Split modifier for TAS multiplication algorithm                  1.0E+00 (U)


  **** **** ******  **  PROGRAM STARTED AT               2025-08-04 14:14:31.517
 ***** ** ***  *** **   PROGRAM STARTED ON                          i06r03c01s03
 **    ****   ******    PROGRAM STARTED BY                               di38fab
 ***** **    ** ** **   PROGRAM PROCESS ID                               2093275
  **** **  *******  **  PROGRAM STARTED IN /hppfs/scratch/04/di38fab/09_GTH/Delt
                                           a_Set/Zn/aug-SZV-MOLOPT-GTH-tier-1/8x
                                           8x8

 CP2K| version string:                 CP2K version 2025.1 (Development Version)
 CP2K| source code revision number:                                  git:3130539
 CP2K| cp2kflags: omp libint fftw3 libxc parallel scalapack max_contr=4         
 CP2K| is freely available from                            https://www.cp2k.org/
 CP2K| Program compiled at                         Tue Jun  3 16:14:32 CEST 2025
 CP2K| Program compiled on                                               login01
 CP2K| Program compiled for                                        Supermuc-foss
 CP2K| Data directory path                  /hppfs/work/pn36zo/di38fab/cp2k/data
 CP2K| Input file name                                                    GW.inp

 GLOBAL| Force Environment number                                              1
 GLOBAL| Basis set file name            /hppfs/scratch/04/di38fab/09_GTH/BASIS_A
 GLOBAL| Potential file name            /hppfs/work/pn36zo/di38fab/cp2k/data/GTH
 GLOBAL| MM Potential file name                                     MM_POTENTIAL
 GLOBAL| Coordinate file name                                             Zn.cif
 GLOBAL| Method name                                                        CP2K
 GLOBAL| Project name                                                       WSe2
 GLOBAL| Run type                                                         ENERGY
 GLOBAL| FFT library                                                       FFTW3
 GLOBAL| Diagonalization library                                       ScaLAPACK
 GLOBAL| Cholesky decomposition library                                ScaLAPACK
 GLOBAL| DGEMM library                                                      BLAS
 GLOBAL| Orthonormality check for eigenvectors                          DISABLED
 GLOBAL| Matrix multiplication library                                 ScaLAPACK
 GLOBAL| All-to-all communication in single precision                          F
 GLOBAL| FFTs using library dependent lengths                                  F
 GLOBAL| Grid backend                                                       AUTO
 GLOBAL| Global print level                                               MEDIUM
 GLOBAL| MPI I/O enabled                                                       T
 GLOBAL| Total number of message passing processes                             8
 GLOBAL| Number of threads for this process                                   12
 GLOBAL| This output is from process                                           0
 GLOBAL| OpenMP stack size per thread (OMP_STACKSIZE)                    default
 GLOBAL| CPU model name             Intel(R) Xeon(R) Platinum 8174 CPU @ 3.10GHz

 MEMORY| system memory details [Kb]
 MEMORY|                        rank 0           min           max       average
 MEMORY| MemTotal             98436664      98436664      98436664      98436664
 MEMORY| MemFree              84367096      84367096      84814040      84590568
 MEMORY| Buffers                     0             0             0             0
 MEMORY| Cached                2361184       2361184       2379692       2370438
 MEMORY| Slab                  1299736       1263328       1299736       1281532
 MEMORY| SReclaimable           281400        269384        281400        275392
 MEMORY| MemLikelyFree        87009680      87009680      87463116      87236398


 *** Fundamental physical constants (SI units) ***

 *** Literature: B. J. Mohr and B. N. Taylor,
 ***             CODATA recommended values of the fundamental physical
 ***             constants: 2006, Web Version 5.1
 ***             http://physics.nist.gov/constants

 Speed of light in vacuum [m/s]                             2.99792458000000E+08
 Magnetic constant or permeability of vacuum [N/A**2]       1.25663706143592E-06
 Electric constant or permittivity of vacuum [F/m]          8.85418781762039E-12
 Planck constant (h) [J*s]                                  6.62606896000000E-34
 Planck constant (h-bar) [J*s]                              1.05457162825177E-34
 Elementary charge [C]                                      1.60217648700000E-19
 Electron mass [kg]                                         9.10938215000000E-31
 Electron g factor [ ]                                     -2.00231930436220E+00
 Proton mass [kg]                                           1.67262163700000E-27
 Fine-structure constant                                    7.29735253760000E-03
 Rydberg constant [1/m]                                     1.09737315685270E+07
 Avogadro constant [1/mol]                                  6.02214179000000E+23
 Boltzmann constant [J/K]                                   1.38065040000000E-23
 Atomic mass unit [kg]                                      1.66053878200000E-27
 Bohr radius [m]                                            5.29177208590000E-11

 *** Conversion factors ***

 [u] -> [a.u.]                                              1.82288848426455E+03
 [Angstrom] -> [Bohr] = [a.u.]                              1.88972613288564E+00
 [a.u.] = [Bohr] -> [Angstrom]                              5.29177208590000E-01
 [a.u.] -> [s]                                              2.41888432650478E-17
 [a.u.] -> [fs]                                             2.41888432650478E-02
 [a.u.] -> [J]                                              4.35974393937059E-18
 [a.u.] -> [N]                                              8.23872205491840E-08
 [a.u.] -> [K]                                              3.15774647902944E+05
 [a.u.] -> [kJ/mol]                                         2.62549961709828E+03
 [a.u.] -> [kcal/mol]                                       6.27509468713739E+02
 [a.u.] -> [Pa]                                             2.94210107994716E+13
 [a.u.] -> [bar]                                            2.94210107994716E+08
 [a.u.] -> [atm]                                            2.90362800883016E+08
 [a.u.] -> [eV]                                             2.72113838565563E+01
 [a.u.] -> [Hz]                                             6.57968392072181E+15
 [a.u.] -> [1/cm] (wave numbers)                            2.19474631370540E+05
 [a.u./Bohr**2] -> [1/cm]                                   5.14048714338585E+03
 

 CELL_TOP| Volume [angstrom^3]:                                        30.701548
 CELL_TOP| Vector a [angstrom     2.662     0.000     0.000   |a| =     2.661690
 CELL_TOP| Vector b [angstrom     1.331     2.305     0.000   |b| =     2.661690
 CELL_TOP| Vector c [angstrom     0.000     0.000     5.004   |c| =     5.003970
 CELL_TOP| Angle (b,c), alpha [degree]:                                90.000000
 CELL_TOP| Angle (a,c), beta  [degree]:                                90.000000
 CELL_TOP| Angle (a,b), gamma [degree]:                                60.000000
 CELL_TOP| Numerically orthorhombic:                                          NO
 CELL_TOP| Periodicity                                                       XYZ

 CELL_CIF| Volume [angstrom^3]:                                        30.701548
 CELL_CIF| Vector a [angstrom     2.662     0.000     0.000   |a| =     2.661690
 CELL_CIF| Vector b [angstrom     1.331     2.305     0.000   |b| =     2.661690
 CELL_CIF| Vector c [angstrom     0.000     0.000     5.004   |c| =     5.003970
 CELL_CIF| Angle (b,c), alpha [degree]:                                90.000000
 CELL_CIF| Angle (a,c), beta  [degree]:                                90.000000
 CELL_CIF| Angle (a,b), gamma [degree]:                                60.000000
 CELL_CIF| Numerically orthorhombic:                                          NO
 CELL_CIF| Periodicity                                                       XYZ

 GENERATE|  Preliminary Number of Bonds generated:                             0
 GENERATE|  Achieved consistency in connectivity generation.

 CELL| Volume [angstrom^3]:                                            30.701548
 CELL| Vector a [angstrom]:       2.662     0.000     0.000   |a| =     2.661690
 CELL| Vector b [angstrom]:       1.331     2.305     0.000   |b| =     2.661690
 CELL| Vector c [angstrom]:       0.000     0.000     5.004   |c| =     5.003970
 CELL| Angle (b,c), alpha [degree]:                                    90.000000
 CELL| Angle (a,c), beta  [degree]:                                    90.000000
 CELL| Angle (a,b), gamma [degree]:                                    60.000000
 CELL| Numerically orthorhombic:                                              NO
 CELL| Periodicity                                                           XYZ

 CELL_REF| Volume [angstrom^3]:                                        30.701548
 CELL_REF| Vector a [angstrom     2.662     0.000     0.000   |a| =     2.661690
 CELL_REF| Vector b [angstrom     1.331     2.305     0.000   |b| =     2.661690
 CELL_REF| Vector c [angstrom     0.000     0.000     5.004   |c| =     5.003970
 CELL_REF| Angle (b,c), alpha [degree]:                                90.000000
 CELL_REF| Angle (a,c), beta  [degree]:                                90.000000
 CELL_REF| Angle (a,b), gamma [degree]:                                60.000000
 CELL_REF| Numerically orthorhombic:                                          NO
 CELL_REF| Periodicity                                                       XYZ

 *** WARNING in cryssym.F:180 :: Symmetry library SPGLIB not available ***


 *******************************************************************************
                                    Kpoints
 *******************************************************************************
 BRILLOUIN| K-point scheme                                        Monkhorst-Pack
 BRILLOUIN| K-Point grid                                             8    8    8
 BRILLOUIN| Accuracy in Symmetry determination                      0.100000E-05
 BRILLOUIN| K-Point point group symmetrization                               OFF
 BRILLOUIN| Wavefunction type                                            COMPLEX
 BRILLOUIN| List of Kpoints [2 Pi/Bohr]                                      256
 BRILLOUIN| Number           Weight            X              Y              Z
 BRILLOUIN|     1           0.00391       -0.43750       -0.43750       -0.43750
 BRILLOUIN|     2           0.00391       -0.43750       -0.43750       -0.31250
 BRILLOUIN|     3           0.00391       -0.43750       -0.43750       -0.18750
 BRILLOUIN|     4           0.00391       -0.43750       -0.43750       -0.06250
 BRILLOUIN|     5           0.00391       -0.43750       -0.43750        0.06250
 BRILLOUIN|     6           0.00391       -0.43750       -0.43750        0.18750
 BRILLOUIN|     7           0.00391       -0.43750       -0.43750        0.31250
 BRILLOUIN|     8           0.00391       -0.43750       -0.43750        0.43750
 BRILLOUIN|     9           0.00391       -0.43750       -0.31250       -0.43750
 BRILLOUIN|    10           0.00391       -0.43750       -0.31250       -0.31250
 BRILLOUIN|    11           0.00391       -0.43750       -0.31250       -0.18750
 BRILLOUIN|    12           0.00391       -0.43750       -0.31250       -0.06250
 BRILLOUIN|    13           0.00391       -0.43750       -0.31250        0.06250
 BRILLOUIN|    14           0.00391       -0.43750       -0.31250        0.18750
 BRILLOUIN|    15           0.00391       -0.43750       -0.31250        0.31250
 BRILLOUIN|    16           0.00391       -0.43750       -0.31250        0.43750
 BRILLOUIN|    17           0.00391       -0.43750       -0.18750       -0.43750
 BRILLOUIN|    18           0.00391       -0.43750       -0.18750       -0.31250
 BRILLOUIN|    19           0.00391       -0.43750       -0.18750       -0.18750
 BRILLOUIN|    20           0.00391       -0.43750       -0.18750       -0.06250
 BRILLOUIN|    21           0.00391       -0.43750       -0.18750        0.06250
 BRILLOUIN|    22           0.00391       -0.43750       -0.18750        0.18750
 BRILLOUIN|    23           0.00391       -0.43750       -0.18750        0.31250
 BRILLOUIN|    24           0.00391       -0.43750       -0.18750        0.43750
 BRILLOUIN|    25           0.00391       -0.43750       -0.06250       -0.43750
 BRILLOUIN|    26           0.00391       -0.43750       -0.06250       -0.31250
 BRILLOUIN|    27           0.00391       -0.43750       -0.06250       -0.18750
 BRILLOUIN|    28           0.00391       -0.43750       -0.06250       -0.06250
 BRILLOUIN|    29           0.00391       -0.43750       -0.06250        0.06250
 BRILLOUIN|    30           0.00391       -0.43750       -0.06250        0.18750
 BRILLOUIN|    31           0.00391       -0.43750       -0.06250        0.31250
 BRILLOUIN|    32           0.00391       -0.43750       -0.06250        0.43750
 BRILLOUIN|    33           0.00391       -0.43750        0.06250       -0.43750
 BRILLOUIN|    34           0.00391       -0.43750        0.06250       -0.31250
 BRILLOUIN|    35           0.00391       -0.43750        0.06250       -0.18750
 BRILLOUIN|    36           0.00391       -0.43750        0.06250       -0.06250
 BRILLOUIN|    37           0.00391       -0.43750        0.06250        0.06250
 BRILLOUIN|    38           0.00391       -0.43750        0.06250        0.18750
 BRILLOUIN|    39           0.00391       -0.43750        0.06250        0.31250
 BRILLOUIN|    40           0.00391       -0.43750        0.06250        0.43750
 BRILLOUIN|    41           0.00391       -0.43750        0.18750       -0.43750
 BRILLOUIN|    42           0.00391       -0.43750        0.18750       -0.31250
 BRILLOUIN|    43           0.00391       -0.43750        0.18750       -0.18750
 BRILLOUIN|    44           0.00391       -0.43750        0.18750       -0.06250
 BRILLOUIN|    45           0.00391       -0.43750        0.18750        0.06250
 BRILLOUIN|    46           0.00391       -0.43750        0.18750        0.18750
 BRILLOUIN|    47           0.00391       -0.43750        0.18750        0.31250
 BRILLOUIN|    48           0.00391       -0.43750        0.18750        0.43750
 BRILLOUIN|    49           0.00391       -0.43750        0.31250       -0.43750
 BRILLOUIN|    50           0.00391       -0.43750        0.31250       -0.31250
 BRILLOUIN|    51           0.00391       -0.43750        0.31250       -0.18750
 BRILLOUIN|    52           0.00391       -0.43750        0.31250       -0.06250
 BRILLOUIN|    53           0.00391       -0.43750        0.31250        0.06250
 BRILLOUIN|    54           0.00391       -0.43750        0.31250        0.18750
 BRILLOUIN|    55           0.00391       -0.43750        0.31250        0.31250
 BRILLOUIN|    56           0.00391       -0.43750        0.31250        0.43750
 BRILLOUIN|    57           0.00391       -0.43750        0.43750       -0.43750
 BRILLOUIN|    58           0.00391       -0.43750        0.43750       -0.31250
 BRILLOUIN|    59           0.00391       -0.43750        0.43750       -0.18750
 BRILLOUIN|    60           0.00391       -0.43750        0.43750       -0.06250
 BRILLOUIN|    61           0.00391       -0.43750        0.43750        0.06250
 BRILLOUIN|    62           0.00391       -0.43750        0.43750        0.18750
 BRILLOUIN|    63           0.00391       -0.43750        0.43750        0.31250
 BRILLOUIN|    64           0.00391       -0.43750        0.43750        0.43750
 BRILLOUIN|    65           0.00391       -0.31250       -0.43750       -0.43750
 BRILLOUIN|    66           0.00391       -0.31250       -0.43750       -0.31250
 BRILLOUIN|    67           0.00391       -0.31250       -0.43750       -0.18750
 BRILLOUIN|    68           0.00391       -0.31250       -0.43750       -0.06250
 BRILLOUIN|    69           0.00391       -0.31250       -0.43750        0.06250
 BRILLOUIN|    70           0.00391       -0.31250       -0.43750        0.18750
 BRILLOUIN|    71           0.00391       -0.31250       -0.43750        0.31250
 BRILLOUIN|    72           0.00391       -0.31250       -0.43750        0.43750
 BRILLOUIN|    73           0.00391       -0.31250       -0.31250       -0.43750
 BRILLOUIN|    74           0.00391       -0.31250       -0.31250       -0.31250
 BRILLOUIN|    75           0.00391       -0.31250       -0.31250       -0.18750
 BRILLOUIN|    76           0.00391       -0.31250       -0.31250       -0.06250
 BRILLOUIN|    77           0.00391       -0.31250       -0.31250        0.06250
 BRILLOUIN|    78           0.00391       -0.31250       -0.31250        0.18750
 BRILLOUIN|    79           0.00391       -0.31250       -0.31250        0.31250
 BRILLOUIN|    80           0.00391       -0.31250       -0.31250        0.43750
 BRILLOUIN|    81           0.00391       -0.31250       -0.18750       -0.43750
 BRILLOUIN|    82           0.00391       -0.31250       -0.18750       -0.31250
 BRILLOUIN|    83           0.00391       -0.31250       -0.18750       -0.18750
 BRILLOUIN|    84           0.00391       -0.31250       -0.18750       -0.06250
 BRILLOUIN|    85           0.00391       -0.31250       -0.18750        0.06250
 BRILLOUIN|    86           0.00391       -0.31250       -0.18750        0.18750
 BRILLOUIN|    87           0.00391       -0.31250       -0.18750        0.31250
 BRILLOUIN|    88           0.00391       -0.31250       -0.18750        0.43750
 BRILLOUIN|    89           0.00391       -0.31250       -0.06250       -0.43750
 BRILLOUIN|    90           0.00391       -0.31250       -0.06250       -0.31250
 BRILLOUIN|    91           0.00391       -0.31250       -0.06250       -0.18750
 BRILLOUIN|    92           0.00391       -0.31250       -0.06250       -0.06250
 BRILLOUIN|    93           0.00391       -0.31250       -0.06250        0.06250
 BRILLOUIN|    94           0.00391       -0.31250       -0.06250        0.18750
 BRILLOUIN|    95           0.00391       -0.31250       -0.06250        0.31250
 BRILLOUIN|    96           0.00391       -0.31250       -0.06250        0.43750
 BRILLOUIN|    97           0.00391       -0.31250        0.06250       -0.43750
 BRILLOUIN|    98           0.00391       -0.31250        0.06250       -0.31250
 BRILLOUIN|    99           0.00391       -0.31250        0.06250       -0.18750
 BRILLOUIN|   100           0.00391       -0.31250        0.06250       -0.06250
 BRILLOUIN|   101           0.00391       -0.31250        0.06250        0.06250
 BRILLOUIN|   102           0.00391       -0.31250        0.06250        0.18750
 BRILLOUIN|   103           0.00391       -0.31250        0.06250        0.31250
 BRILLOUIN|   104           0.00391       -0.31250        0.06250        0.43750
 BRILLOUIN|   105           0.00391       -0.31250        0.18750       -0.43750
 BRILLOUIN|   106           0.00391       -0.31250        0.18750       -0.31250
 BRILLOUIN|   107           0.00391       -0.31250        0.18750       -0.18750
 BRILLOUIN|   108           0.00391       -0.31250        0.18750       -0.06250
 BRILLOUIN|   109           0.00391       -0.31250        0.18750        0.06250
 BRILLOUIN|   110           0.00391       -0.31250        0.18750        0.18750
 BRILLOUIN|   111           0.00391       -0.31250        0.18750        0.31250
 BRILLOUIN|   112           0.00391       -0.31250        0.18750        0.43750
 BRILLOUIN|   113           0.00391       -0.31250        0.31250       -0.43750
 BRILLOUIN|   114           0.00391       -0.31250        0.31250       -0.31250
 BRILLOUIN|   115           0.00391       -0.31250        0.31250       -0.18750
 BRILLOUIN|   116           0.00391       -0.31250        0.31250       -0.06250
 BRILLOUIN|   117           0.00391       -0.31250        0.31250        0.06250
 BRILLOUIN|   118           0.00391       -0.31250        0.31250        0.18750
 BRILLOUIN|   119           0.00391       -0.31250        0.31250        0.31250
 BRILLOUIN|   120           0.00391       -0.31250        0.31250        0.43750
 BRILLOUIN|   121           0.00391       -0.31250        0.43750       -0.43750
 BRILLOUIN|   122           0.00391       -0.31250        0.43750       -0.31250
 BRILLOUIN|   123           0.00391       -0.31250        0.43750       -0.18750
 BRILLOUIN|   124           0.00391       -0.31250        0.43750       -0.06250
 BRILLOUIN|   125           0.00391       -0.31250        0.43750        0.06250
 BRILLOUIN|   126           0.00391       -0.31250        0.43750        0.18750
 BRILLOUIN|   127           0.00391       -0.31250        0.43750        0.31250
 BRILLOUIN|   128           0.00391       -0.31250        0.43750        0.43750
 BRILLOUIN|   129           0.00391       -0.18750       -0.43750       -0.43750
 BRILLOUIN|   130           0.00391       -0.18750       -0.43750       -0.31250
 BRILLOUIN|   131           0.00391       -0.18750       -0.43750       -0.18750
 BRILLOUIN|   132           0.00391       -0.18750       -0.43750       -0.06250
 BRILLOUIN|   133           0.00391       -0.18750       -0.43750        0.06250
 BRILLOUIN|   134           0.00391       -0.18750       -0.43750        0.18750
 BRILLOUIN|   135           0.00391       -0.18750       -0.43750        0.31250
 BRILLOUIN|   136           0.00391       -0.18750       -0.43750        0.43750
 BRILLOUIN|   137           0.00391       -0.18750       -0.31250       -0.43750
 BRILLOUIN|   138           0.00391       -0.18750       -0.31250       -0.31250
 BRILLOUIN|   139           0.00391       -0.18750       -0.31250       -0.18750
 BRILLOUIN|   140           0.00391       -0.18750       -0.31250       -0.06250
 BRILLOUIN|   141           0.00391       -0.18750       -0.31250        0.06250
 BRILLOUIN|   142           0.00391       -0.18750       -0.31250        0.18750
 BRILLOUIN|   143           0.00391       -0.18750       -0.31250        0.31250
 BRILLOUIN|   144           0.00391       -0.18750       -0.31250        0.43750
 BRILLOUIN|   145           0.00391       -0.18750       -0.18750       -0.43750
 BRILLOUIN|   146           0.00391       -0.18750       -0.18750       -0.31250
 BRILLOUIN|   147           0.00391       -0.18750       -0.18750       -0.18750
 BRILLOUIN|   148           0.00391       -0.18750       -0.18750       -0.06250
 BRILLOUIN|   149           0.00391       -0.18750       -0.18750        0.06250
 BRILLOUIN|   150           0.00391       -0.18750       -0.18750        0.18750
 BRILLOUIN|   151           0.00391       -0.18750       -0.18750        0.31250
 BRILLOUIN|   152           0.00391       -0.18750       -0.18750        0.43750
 BRILLOUIN|   153           0.00391       -0.18750       -0.06250       -0.43750
 BRILLOUIN|   154           0.00391       -0.18750       -0.06250       -0.31250
 BRILLOUIN|   155           0.00391       -0.18750       -0.06250       -0.18750
 BRILLOUIN|   156           0.00391       -0.18750       -0.06250       -0.06250
 BRILLOUIN|   157           0.00391       -0.18750       -0.06250        0.06250
 BRILLOUIN|   158           0.00391       -0.18750       -0.06250        0.18750
 BRILLOUIN|   159           0.00391       -0.18750       -0.06250        0.31250
 BRILLOUIN|   160           0.00391       -0.18750       -0.06250        0.43750
 BRILLOUIN|   161           0.00391       -0.18750        0.06250       -0.43750
 BRILLOUIN|   162           0.00391       -0.18750        0.06250       -0.31250
 BRILLOUIN|   163           0.00391       -0.18750        0.06250       -0.18750
 BRILLOUIN|   164           0.00391       -0.18750        0.06250       -0.06250
 BRILLOUIN|   165           0.00391       -0.18750        0.06250        0.06250
 BRILLOUIN|   166           0.00391       -0.18750        0.06250        0.18750
 BRILLOUIN|   167           0.00391       -0.18750        0.06250        0.31250
 BRILLOUIN|   168           0.00391       -0.18750        0.06250        0.43750
 BRILLOUIN|   169           0.00391       -0.18750        0.18750       -0.43750
 BRILLOUIN|   170           0.00391       -0.18750        0.18750       -0.31250
 BRILLOUIN|   171           0.00391       -0.18750        0.18750       -0.18750
 BRILLOUIN|   172           0.00391       -0.18750        0.18750       -0.06250
 BRILLOUIN|   173           0.00391       -0.18750        0.18750        0.06250
 BRILLOUIN|   174           0.00391       -0.18750        0.18750        0.18750
 BRILLOUIN|   175           0.00391       -0.18750        0.18750        0.31250
 BRILLOUIN|   176           0.00391       -0.18750        0.18750        0.43750
 BRILLOUIN|   177           0.00391       -0.18750        0.31250       -0.43750
 BRILLOUIN|   178           0.00391       -0.18750        0.31250       -0.31250
 BRILLOUIN|   179           0.00391       -0.18750        0.31250       -0.18750
 BRILLOUIN|   180           0.00391       -0.18750        0.31250       -0.06250
 BRILLOUIN|   181           0.00391       -0.18750        0.31250        0.06250
 BRILLOUIN|   182           0.00391       -0.18750        0.31250        0.18750
 BRILLOUIN|   183           0.00391       -0.18750        0.31250        0.31250
 BRILLOUIN|   184           0.00391       -0.18750        0.31250        0.43750
 BRILLOUIN|   185           0.00391       -0.18750        0.43750       -0.43750
 BRILLOUIN|   186           0.00391       -0.18750        0.43750       -0.31250
 BRILLOUIN|   187           0.00391       -0.18750        0.43750       -0.18750
 BRILLOUIN|   188           0.00391       -0.18750        0.43750       -0.06250
 BRILLOUIN|   189           0.00391       -0.18750        0.43750        0.06250
 BRILLOUIN|   190           0.00391       -0.18750        0.43750        0.18750
 BRILLOUIN|   191           0.00391       -0.18750        0.43750        0.31250
 BRILLOUIN|   192           0.00391       -0.18750        0.43750        0.43750
 BRILLOUIN|   193           0.00391       -0.06250       -0.43750       -0.43750
 BRILLOUIN|   194           0.00391       -0.06250       -0.43750       -0.31250
 BRILLOUIN|   195           0.00391       -0.06250       -0.43750       -0.18750
 BRILLOUIN|   196           0.00391       -0.06250       -0.43750       -0.06250
 BRILLOUIN|   197           0.00391       -0.06250       -0.43750        0.06250
 BRILLOUIN|   198           0.00391       -0.06250       -0.43750        0.18750
 BRILLOUIN|   199           0.00391       -0.06250       -0.43750        0.31250
 BRILLOUIN|   200           0.00391       -0.06250       -0.43750        0.43750
 BRILLOUIN|   201           0.00391       -0.06250       -0.31250       -0.43750
 BRILLOUIN|   202           0.00391       -0.06250       -0.31250       -0.31250
 BRILLOUIN|   203           0.00391       -0.06250       -0.31250       -0.18750
 BRILLOUIN|   204           0.00391       -0.06250       -0.31250       -0.06250
 BRILLOUIN|   205           0.00391       -0.06250       -0.31250        0.06250
 BRILLOUIN|   206           0.00391       -0.06250       -0.31250        0.18750
 BRILLOUIN|   207           0.00391       -0.06250       -0.31250        0.31250
 BRILLOUIN|   208           0.00391       -0.06250       -0.31250        0.43750
 BRILLOUIN|   209           0.00391       -0.06250       -0.18750       -0.43750
 BRILLOUIN|   210           0.00391       -0.06250       -0.18750       -0.31250
 BRILLOUIN|   211           0.00391       -0.06250       -0.18750       -0.18750
 BRILLOUIN|   212           0.00391       -0.06250       -0.18750       -0.06250
 BRILLOUIN|   213           0.00391       -0.06250       -0.18750        0.06250
 BRILLOUIN|   214           0.00391       -0.06250       -0.18750        0.18750
 BRILLOUIN|   215           0.00391       -0.06250       -0.18750        0.31250
 BRILLOUIN|   216           0.00391       -0.06250       -0.18750        0.43750
 BRILLOUIN|   217           0.00391       -0.06250       -0.06250       -0.43750
 BRILLOUIN|   218           0.00391       -0.06250       -0.06250       -0.31250
 BRILLOUIN|   219           0.00391       -0.06250       -0.06250       -0.18750
 BRILLOUIN|   220           0.00391       -0.06250       -0.06250       -0.06250
 BRILLOUIN|   221           0.00391       -0.06250       -0.06250        0.06250
 BRILLOUIN|   222           0.00391       -0.06250       -0.06250        0.18750
 BRILLOUIN|   223           0.00391       -0.06250       -0.06250        0.31250
 BRILLOUIN|   224           0.00391       -0.06250       -0.06250        0.43750
 BRILLOUIN|   225           0.00391       -0.06250        0.06250       -0.43750
 BRILLOUIN|   226           0.00391       -0.06250        0.06250       -0.31250
 BRILLOUIN|   227           0.00391       -0.06250        0.06250       -0.18750
 BRILLOUIN|   228           0.00391       -0.06250        0.06250       -0.06250
 BRILLOUIN|   229           0.00391       -0.06250        0.06250        0.06250
 BRILLOUIN|   230           0.00391       -0.06250        0.06250        0.18750
 BRILLOUIN|   231           0.00391       -0.06250        0.06250        0.31250
 BRILLOUIN|   232           0.00391       -0.06250        0.06250        0.43750
 BRILLOUIN|   233           0.00391       -0.06250        0.18750       -0.43750
 BRILLOUIN|   234           0.00391       -0.06250        0.18750       -0.31250
 BRILLOUIN|   235           0.00391       -0.06250        0.18750       -0.18750
 BRILLOUIN|   236           0.00391       -0.06250        0.18750       -0.06250
 BRILLOUIN|   237           0.00391       -0.06250        0.18750        0.06250
 BRILLOUIN|   238           0.00391       -0.06250        0.18750        0.18750
 BRILLOUIN|   239           0.00391       -0.06250        0.18750        0.31250
 BRILLOUIN|   240           0.00391       -0.06250        0.18750        0.43750
 BRILLOUIN|   241           0.00391       -0.06250        0.31250       -0.43750
 BRILLOUIN|   242           0.00391       -0.06250        0.31250       -0.31250
 BRILLOUIN|   243           0.00391       -0.06250        0.31250       -0.18750
 BRILLOUIN|   244           0.00391       -0.06250        0.31250       -0.06250
 BRILLOUIN|   245           0.00391       -0.06250        0.31250        0.06250
 BRILLOUIN|   246           0.00391       -0.06250        0.31250        0.18750
 BRILLOUIN|   247           0.00391       -0.06250        0.31250        0.31250
 BRILLOUIN|   248           0.00391       -0.06250        0.31250        0.43750
 BRILLOUIN|   249           0.00391       -0.06250        0.43750       -0.43750
 BRILLOUIN|   250           0.00391       -0.06250        0.43750       -0.31250
 BRILLOUIN|   251           0.00391       -0.06250        0.43750       -0.18750
 BRILLOUIN|   252           0.00391       -0.06250        0.43750       -0.06250
 BRILLOUIN|   253           0.00391       -0.06250        0.43750        0.06250
 BRILLOUIN|   254           0.00391       -0.06250        0.43750        0.18750
 BRILLOUIN|   255           0.00391       -0.06250        0.43750        0.31250
 BRILLOUIN|   256           0.00391       -0.06250        0.43750        0.43750
 *******************************************************************************

 *******************************************************************************
 *******************************************************************************
 **                                                                           **
 **     #####                         ##              ##                      **
 **    ##   ##            ##          ##              ##                      **
 **   ##     ##                       ##            ######                    **
 **   ##     ##  ##   ##  ##   #####  ##  ##   ####   ##    #####    #####    **
 **   ##     ##  ##   ##  ##  ##      ## ##   ##      ##   ##   ##  ##   ##   **
 **   ##  ## ##  ##   ##  ##  ##      ####     ###    ##   ######   ######    **
 **    ##  ###   ##   ##  ##  ##      ## ##      ##   ##   ##       ##        **
 **     #######   #####   ##   #####  ##  ##  ####    ##    #####   ##        **
 **           ##                                                    ##        **
 **                                                                           **
 **                                                ... make the atoms dance   **
 **                                                                           **
 **            Copyright (C) by CP2K developers group (2000-2025)             **
 **                      J. Chem. Phys. 152, 194103 (2020)                    **
 **                                                                           **
 *******************************************************************************

 DFT| Spin restricted Kohn-Sham (RKS) calculation                            RKS
 DFT| Multiplicity                                                             1
 DFT| Number of spin states                                                    1
 DFT| Charge                                                                   0
 DFT| Self-interaction correction (SIC)                                       NO
 DFT| Cutoffs: density                                              1.000000E-10
 DFT|          gradient                                             1.000000E-10
 DFT|          tau                                                  1.000000E-10
 DFT|          cutoff_smoothing_range                               0.000000E+00
 DFT| XC density smoothing                                                  NONE
 DFT| XC derivatives                                                          PW

 FUNCTIONAL| PBE:
 FUNCTIONAL| J.P.Perdew, K.Burke, M.Ernzerhof, Phys. Rev. Letter, vol. 77, n 18,
 FUNCTIONAL|  pp. 3865-3868, (1996) {spin unpolarized}                          


 QS| Method:                                                                 GPW
 QS| Density plane wave grid type                        NON-SPHERICAL FULLSPACE
 QS| Number of grid levels:                                                    4
 QS| Density cutoff [a.u.]:                                                500.0
 QS| Multi grid cutoff [a.u.]: 1) grid level                               500.0
 QS|                           2) grid level                               166.7
 QS|                           3) grid level                                55.6
 QS|                           4) grid level                                18.5
 QS| Grid level progression factor:                                          3.0
 QS| Relative density cutoff [a.u.]:                                        50.0
 QS| Interaction thresholds: eps_pgf_orb:                                1.0E-16
 QS|                         eps_filter_matrix:                          0.0E+00
 QS|                         eps_core_charge:                            1.0E-18
 QS|                         eps_rho_gspace:                             1.0E-16
 QS|                         eps_rho_rspace:                             1.0E-16
 QS|                         eps_gvg_rspace:                             1.0E-08
 QS|                         eps_ppl:                                    1.0E-02
 QS|                         eps_ppnl:                                   1.0E-10


 ATOMIC KIND INFORMATION

  1. Atomic kind: Zn                                    Number of atoms:       2

     Orbital Basis Set                                 aug-SZV-MOLOPT-GTH-tier-1

       Number of orbital shell sets:                                           1
       Number of orbital shells:                                               6
       Number of primitive Cartesian functions:                                6
       Number of Cartesian basis functions:                                   20
       Number of spherical basis functions:                                   18
       Norm type:                                                              2

       Normalised Cartesian orbitals:

                        Set   Shell   Orbital            Exponent    Coefficient

                          1       1    2s                0.079830      -0.058340
                                                         0.222222      -0.163015
                                                         0.545418       0.070077
                                                         1.341704       0.275787
                                                         3.167793      -0.182901
                                                         6.400813       0.070678

                          1       2    3s                0.079830      -0.202999
                                                         0.222222       0.460743
                                                         0.545418      -0.116208
                                                         1.341704      -0.029947
                                                         3.167793       0.000000
                                                         6.400813       0.000000

                          1       3    3px               0.079830      -0.031199
                                                         0.222222      -0.119660
                                                         0.545418      -0.041743
                                                         1.341704       0.233174
                                                         3.167793      -0.065115
                                                         6.400813       0.044192
                          1       3    3py               0.079830      -0.031199
                                                         0.222222      -0.119660
                                                         0.545418      -0.041743
                                                         1.341704       0.233174
                                                         3.167793      -0.065115
                                                         6.400813       0.044192
                          1       3    3pz               0.079830      -0.031199
                                                         0.222222      -0.119660
                                                         0.545418      -0.041743
                                                         1.341704       0.233174
                                                         3.167793      -0.065115
                                                         6.400813       0.044192

                          1       4    4px               0.079830       0.012593
                                                         0.222222      -0.206566
                                                         0.545418      -0.145001
                                                         1.341704      -0.011941
                                                         3.167793       0.000000
                                                         6.400813       0.000000
                          1       4    4py               0.079830       0.012593
                                                         0.222222      -0.206566
                                                         0.545418      -0.145001
                                                         1.341704      -0.011941
                                                         3.167793       0.000000
                                                         6.400813       0.000000
                          1       4    4pz               0.079830       0.012593
                                                         0.222222      -0.206566
                                                         0.545418      -0.145001
                                                         1.341704      -0.011941
                                                         3.167793       0.000000
                                                         6.400813       0.000000

                          1       5    4dx2              0.079830       0.000178
                                                         0.222222       0.011465
                                                         0.545418       0.127232
                                                         1.341704       0.893324
                                                         3.167793       4.421865
                                                         6.400813      12.052932
                          1       5    4dxy              0.079830       0.000308
                                                         0.222222       0.019859
                                                         0.545418       0.220373
                                                         1.341704       1.547282
                                                         3.167793       7.658895
                                                         6.400813      20.876290
                          1       5    4dxz              0.079830       0.000308
                                                         0.222222       0.019859
                                                         0.545418       0.220373
                                                         1.341704       1.547282
                                                         3.167793       7.658895
                                                         6.400813      20.876290
                          1       5    4dy2              0.079830       0.000178
                                                         0.222222       0.011465
                                                         0.545418       0.127232
                                                         1.341704       0.893324
                                                         3.167793       4.421865
                                                         6.400813      12.052932
                          1       5    4dyz              0.079830       0.000308
                                                         0.222222       0.019859
                                                         0.545418       0.220373
                                                         1.341704       1.547282
                                                         3.167793       7.658895
                                                         6.400813      20.876290
                          1       5    4dz2              0.079830       0.000178
                                                         0.222222       0.011465
                                                         0.545418       0.127232
                                                         1.341704       0.893324
                                                         3.167793       4.421865
                                                         6.400813      12.052932

                          1       6    5dx2              0.079830       0.018310
                                                         0.222222       0.011895
                                                         0.545418       0.010901
                                                         1.341704      -0.041557
                                                         3.167793       0.000000
                                                         6.400813       0.000000
                          1       6    5dxy              0.079830       0.031714
                                                         0.222222       0.020602
                                                         0.545418       0.018882
                                                         1.341704      -0.071978
                                                         3.167793       0.000000
                                                         6.400813       0.000000
                          1       6    5dxz              0.079830       0.031714
                                                         0.222222       0.020602
                                                         0.545418       0.018882
                                                         1.341704      -0.071978
                                                         3.167793       0.000000
                                                         6.400813       0.000000
                          1       6    5dy2              0.079830       0.018310
                                                         0.222222       0.011895
                                                         0.545418       0.010901
                                                         1.341704      -0.041557
                                                         3.167793       0.000000
                                                         6.400813       0.000000
                          1       6    5dyz              0.079830       0.031714
                                                         0.222222       0.020602
                                                         0.545418       0.018882
                                                         1.341704      -0.071978
                                                         3.167793       0.000000
                                                         6.400813       0.000000
                          1       6    5dz2              0.079830       0.018310
                                                         0.222222       0.011895
                                                         0.545418       0.010901
                                                         1.341704      -0.041557
                                                         3.167793       0.000000
                                                         6.400813       0.000000

       Atomic covalent radius [Angstrom]:                                  1.250

       Atomic van der Waals radius [Angstrom]:                             1.390

     GTH Potential information for                                       GTH-PBE

       Description:                       Goedecker-Teter-Hutter pseudopotential
                                           Goedecker et al., PRB 54, 1703 (1996)
                                          Hartwigsen et al., PRB 58, 3641 (1998)
                                                      Krack, TCA 114, 145 (2005)

       Gaussian exponent of the core charge distribution:               1.922338
       Electronic configuration (s p d ...):                           2   0  10

       Parameters of the local part of the GTH pseudopotential:

                          rloc        C1          C2          C3          C4
                        0.510000

       Parameters of the non-local part of the GTH (SOC) pseudopotential:

                   l      r(l)      h(i,j,l)
                                    k(i,j,l)
                   0    0.400316   11.530041   -8.791898    3.145086
                                   -8.791898   16.465775   -8.120578
                                    3.145086   -8.120578    6.445509
                   1    0.543182    2.597195   -0.594263
                                   -0.594263    0.703141
                                    0.100174   -0.106933
                                   -0.106933    0.126525
                   2    0.250959  -14.466958
                                    0.012727


 MOLECULE KIND INFORMATION


 All atoms are their own molecule, skipping detailed information


 TOTAL NUMBERS AND MAXIMUM NUMBERS

  Total number of            - Atomic kinds:                                   1
                             - Atoms:                                          2
                             - Shell sets:                                     2
                             - Shells:                                        12
                             - Primitive Cartesian functions:                 12
                             - Cartesian basis functions:                     40
                             - Spherical basis functions:                     36

  Maximum angular momentum of the orbital basis functions:                     2


 MODULE QUICKSTEP: ATOMIC COORDINATES IN ANGSTROM

   Atom Kind Element         X             Y             Z       Z(eff)     Mass
      1    1 Zn   30      0.000000      0.000000      0.000000  12.0000  65.3800
      2    1 Zn   30      1.330832      0.768356      2.501985  12.0000  65.3800



 SCF PARAMETERS         Density guess:                                    ATOMIC
                        --------------------------------------------------------
                        max_scf:                                             500
                        max_scf_history:                                       0
                        max_diis:                                              4
                        --------------------------------------------------------
                        eps_scf:                                        1.00E-09
                        eps_scf_history:                                0.00E+00
                        eps_diis:                                       1.00E-01
                        eps_eigval:                                     1.00E-05
                        --------------------------------------------------------
                        level_shift [a.u.]:                             0.000000
                        added MOs                                        24    0
                        --------------------------------------------------------
                        Mixing method:                            BROYDEN_MIXING
                                                charge density mixing in g-space
                        --------------------------------------------------------
                        Smear method:                                FERMI_DIRAC
                        Electronic temperature [K]:                        300.0
                        Electronic temperature [a.u.]:                  9.50E-04
                        Accuracy threshold:                             1.00E-10
                        --------------------------------------------------------
                        No outer SCF

 PW_GRID| Information for grid number                                          1
 PW_GRID| Grid distributed over                                     8 processors
 PW_GRID| Real space group dimensions                                     8    1
 PW_GRID| the grid is blocked:                                                NO
 PW_GRID| Cutoff [a.u.]                                                    500.0
 PW_GRID| spherical cutoff:                                                   NO
 PW_GRID|   Bounds   1            -27      26                Points:          54
 PW_GRID|   Bounds   2            -27      26                Points:          54
 PW_GRID|   Bounds   3            -48      47                Points:          96
 PW_GRID| Volume element (a.u.^3)  0.7401E-03     Volume (a.u.^3)       207.1843
 PW_GRID| Grid span                                                    FULLSPACE
 PW_GRID|   Distribution                         Average         Max         Min
 PW_GRID|   G-Vectors                            34992.0       34992       34992
 PW_GRID|   G-Rays                                 648.0         648         648
 PW_GRID|   Real Space Points                    34992.0       36288       31104

 PW_GRID| Information for grid number                                          2
 PW_GRID| Number of the reference grid                                         1
 PW_GRID| Grid distributed over                                     8 processors
 PW_GRID| Real space group dimensions                                     8    1
 PW_GRID| the grid is blocked:                                                NO
 PW_GRID| Cutoff [a.u.]                                                    166.7
 PW_GRID| spherical cutoff:                                                   NO
 PW_GRID|   Bounds   1            -15      14                Points:          30
 PW_GRID|   Bounds   2            -15      14                Points:          30
 PW_GRID|   Bounds   3            -30      29                Points:          60
 PW_GRID| Volume element (a.u.^3)  0.3837E-02     Volume (a.u.^3)       207.1843
 PW_GRID| Grid span                                                    FULLSPACE
 PW_GRID|   Distribution                         Average         Max         Min
 PW_GRID|   G-Vectors                             6750.0        6810        6690
 PW_GRID|   G-Rays                                 225.0         227         223
 PW_GRID|   Real Space Points                     6750.0        7200        5400

 PW_GRID| Information for grid number                                          3
 PW_GRID| Number of the reference grid                                         1
 PW_GRID| Grid distributed over                                     8 processors
 PW_GRID| Real space group dimensions                                     8    1
 PW_GRID| the grid is blocked:                                                NO
 PW_GRID| Cutoff [a.u.]                                                     55.6
 PW_GRID| spherical cutoff:                                                   NO
 PW_GRID|   Bounds   1             -9       8                Points:          18
 PW_GRID|   Bounds   2             -9       8                Points:          18
 PW_GRID|   Bounds   3            -16      15                Points:          32
 PW_GRID| Volume element (a.u.^3)  0.1998E-01     Volume (a.u.^3)       207.1843
 PW_GRID| Grid span                                                    FULLSPACE
 PW_GRID|   Distribution                         Average         Max         Min
 PW_GRID|   G-Vectors                             1296.0        1332        1260
 PW_GRID|   G-Rays                                  72.0          74          70
 PW_GRID|   Real Space Points                     1296.0        1728        1152

 PW_GRID| Information for grid number                                          4
 PW_GRID| Number of the reference grid                                         1
 PW_GRID| Grid distributed over                                     8 processors
 PW_GRID| Real space group dimensions                                     8    1
 PW_GRID| the grid is blocked:                                                NO
 PW_GRID| Cutoff [a.u.]                                                     18.5
 PW_GRID| spherical cutoff:                                                   NO
 PW_GRID|   Bounds   1             -4       4                Points:           9
 PW_GRID|   Bounds   2             -4       4                Points:           9
 PW_GRID|   Bounds   3            -10       9                Points:          20
 PW_GRID| Volume element (a.u.^3)  0.1279         Volume (a.u.^3)       207.1843
 PW_GRID| Grid span                                                    FULLSPACE
 PW_GRID|   Distribution                         Average         Max         Min
 PW_GRID|   G-Vectors                              202.5         234         162
 PW_GRID|   G-Rays                                  22.5          26          18
 PW_GRID|   Real Space Points                      202.5         360         180

 POISSON| Solver                                                        PERIODIC
 POISSON| Periodicity                                                        XYZ

 RS_GRID| Information for grid number                                          1
 RS_GRID|   Bounds   1            -27      26                Points:          54
 RS_GRID|   Bounds   2            -27      26                Points:          54
 RS_GRID|   Bounds   3            -48      47                Points:          96
 RS_GRID| Real space fully replicated
 RS_GRID| Group size                                                           1

 RS_GRID| Information for grid number                                          2
 RS_GRID|   Bounds   1            -15      14                Points:          30
 RS_GRID|   Bounds   2            -15      14                Points:          30
 RS_GRID|   Bounds   3            -30      29                Points:          60
 RS_GRID| Real space fully replicated
 RS_GRID| Group size                                                           1

 RS_GRID| Information for grid number                                          3
 RS_GRID|   Bounds   1             -9       8                Points:          18
 RS_GRID|   Bounds   2             -9       8                Points:          18
 RS_GRID|   Bounds   3            -16      15                Points:          32
 RS_GRID| Real space fully replicated
 RS_GRID| Group size                                                           1

 RS_GRID| Information for grid number                                          4
 RS_GRID|   Bounds   1             -4       4                Points:           9
 RS_GRID|   Bounds   2             -4       4                Points:           9
 RS_GRID|   Bounds   3            -10       9                Points:          20
 RS_GRID| Real space fully replicated
 RS_GRID| Group size                                                           1

 Number of electrons:                                                         24
 Number of occupied orbitals:                                                 12
 Number of molecular orbitals:                                                36

 Number of orbital functions:                                                 36
 Number of independent orbital functions:                                     36

 Extrapolation method: initial_guess

 Atomic guess: The first density matrix is obtained in terms of atomic orbitals
               and electronic configurations assigned to each atomic kind

 Guess for atomic kind: Zn

 Electronic structure
    Total number of core electrons                                         18.00
    Total number of valence electrons                                      12.00
    Total number of electrons                                              30.00
    Multiplicity                                                   not specified
    S   [  2.00  2.00  2.00] 2.00
    P   [  6.00  6.00]
    D     10.00


 *******************************************************************************
                  Iteration          Convergence                     Energy [au]
 *******************************************************************************
                          1         9.37341                     -23.824066251297
                          2        0.811946                     -59.555476012177
                          3        0.368257                     -60.112883637149
                          4        0.223161                     -60.134995844036
                          5        0.192388                     -60.137272972583
                          6        0.176903                     -60.138274894842
                          7        0.138765E-01                 -60.143329172748
                          8        0.431790E-03                 -60.143352122185
                          9        0.100026E-03                 -60.143352144408
                         10        0.638278E-05                 -60.143352145596
                         11        0.149512E-06                 -60.143352145601

 Energy components [Hartree]           Total Energy ::          -60.143352145601
                                        Band Energy ::           -3.502683920886
                                     Kinetic Energy ::           84.706551564806
                                   Potential Energy ::         -144.849903710407
                                      Virial (-V/T) ::            1.710020075597
                                        Core Energy ::         -110.821226779110
                                          XC Energy ::           -8.701301875134
                                     Coulomb Energy ::           59.379176508643
                       Total Pseudopotential Energy ::         -195.621401824077
                       Local Pseudopotential Energy ::         -136.348045868745
                    Nonlocal Pseudopotential Energy ::          -59.273355955332
                                        Confinement ::            0.936234801614

 Orbital energies  State     L     Occupation   Energy[a.u.]          Energy[eV]

                       1     0          2.000      -0.173539           -4.722239

                       1     2         10.000      -0.315561           -8.586840


 Total Electron Density at R=0:                                         0.000383
 Re-scaling the density matrix to get the right number of electrons
                  # Electrons              Trace(P)               Scaling factor
                           24                24.000                        1.000


 SCF WAVEFUNCTION OPTIMIZATION

  Step     Update method      Time    Convergence         Total energy    Change
  ------------------------------------------------------------------------------
     1 NoMix/Diag. 0.10E+00    6.1     1.95880400      -121.2061635142 -1.21E+02
     2 Broy./Diag. 0.10E+00    6.3     0.01872889      -121.9612503269 -7.55E-01
     3 Broy./Diag. 0.10E+00    6.3     0.11892121      -121.5505969670  4.11E-01
     4 Broy./Diag. 0.10E+00    6.3     0.01289676      -121.0648947109  4.86E-01
     5 Broy./Diag. 0.10E+00    6.3     0.00289589      -121.0263111199  3.86E-02
     6 Broy./Diag. 0.10E+00    6.3     0.00350080      -121.0392998512 -1.30E-02
     7 Broy./Diag. 0.10E+00    6.3     0.00150292      -121.0559022053 -1.66E-02
     8 Broy./Diag. 0.10E+00    6.3     0.00107406      -121.0576388069 -1.74E-03
     9 Broy./Diag. 0.10E+00    6.3     0.00014798      -121.0536343011  4.00E-03
    10 Broy./Diag. 0.10E+00    6.3     0.00009197      -121.0530272471  6.07E-04
    11 Broy./Diag. 0.10E+00    6.3     0.00000907      -121.0529652442  6.20E-05
    12 Broy./Diag. 0.10E+00    6.3     0.00001405      -121.0529466998  1.85E-05
    13 Broy./Diag. 0.10E+00    6.3     0.00000027      -121.0529129648  3.37E-05
    14 Broy./Diag. 0.10E+00    6.3     0.00000317      -121.0529193509 -6.39E-06
    15 Broy./Diag. 0.10E+00    6.3     0.00000009      -121.0529232596 -3.91E-06
    16 Broy./Diag. 0.10E+00    6.3     0.00000081      -121.0529218589  1.40E-06
    17 Broy./Diag. 0.10E+00    6.3     0.00000002      -121.0529198230  2.04E-06
    18 Broy./Diag. 0.10E+00    6.3     0.00000014      -121.0529201303 -3.07E-07
    19 Broy./Diag. 0.10E+00    6.4     0.00000001      -121.0529207027 -5.72E-07
    20 Broy./Diag. 0.10E+00    6.3     0.00000006      -121.0529209046 -2.02E-07
    21 Broy./Diag. 0.10E+00    6.3     0.00000002      -121.0529209883 -8.37E-08
    22 Broy./Diag. 0.10E+00    6.3     6.6266E-09      -121.0529208735  1.15E-07
    23 Broy./Diag. 0.10E+00    6.3     8.9991E-09      -121.0529208302  4.33E-08
    24 Broy./Diag. 0.10E+00    6.3     4.2176E-09      -121.0529208157  1.45E-08
    25 Broy./Diag. 0.10E+00    6.3     2.7436E-09      -121.0529208334 -1.77E-08
    26 Broy./Diag. 0.10E+00    6.3     4.4212E-10      -121.0529208407 -7.35E-09

  *** SCF run converged in    26 steps ***


  Electronic density on regular grids:        -24.0000000000        0.0000000000
  Core density on regular grids:               24.0000000000        0.0000000000
  Total charge density on r-space grids:        0.0000000000
  Total charge density g-space grids:           0.0000000000

  Overlap energy of the core charge distribution:               0.00000000053204
  Self energy of the core charge distribution:               -159.30058829583709
  Core Hamiltonian energy:                                     50.74409356407899
  Hartree energy:                                               5.48516883014814
  Exchange-correlation energy:                                -17.98153542339085
  Electronic entropic energy:                                  -0.00005951624556
  Fermi energy:                                                 0.21952469967489

  Total energy:                                              -121.05292084071428

 !-----------------------------------------------------------------------------!
                     Mulliken Population Analysis

 #  Atom  Element  Kind  Atomic population                           Net charge
       1     Zn       1         12.000000                              0.000000
       2     Zn       1         12.000000                             -0.000000
 # Total charge                             24.000000                  0.000000

 !-----------------------------------------------------------------------------!

 !-----------------------------------------------------------------------------!
                           Hirshfeld Charges

  #Atom  Element  Kind  Ref Charge     Population                    Net charge
      1       Zn     1      12.000         12.000                         0.000
      2       Zn     1      12.000         12.000                        -0.000

  Total Charge                                                            0.000
 !-----------------------------------------------------------------------------!

 KPOINTS| Band Structure Calculation
 KPOINTS| Number of k-point sets                                               1
 KPOINTS| Number of added MOs/bands                                           -1
 KPOINTS| Number of k-points in set    1                                     148
 KPOINTS| In units of b-vector [2pi/Bohr]
 KPOINTS| Special point     1 not specifi     0.000000     0.000000     0.000000
 KPOINTS| Special point     2 not specifi     0.500000     0.000000     0.000000
 KPOINTS| Special point     3 not specifi     0.333333     0.333333     0.000000
 KPOINTS| Special point     4 not specifi     0.000000     0.000000     0.000000
 KPOINTS| Time for k-point line                                            2.487

 ENERGY| Total FORCE_EVAL ( QS ) energy [hartree]           -121.052920840714279

 -------------------------------------------------------------------------------
 -                                                                             -
 -                                DBCSR STATISTICS                             -
 -                                                                             -
 -------------------------------------------------------------------------------
 COUNTER                                    TOTAL       BLAS       SMM       ACC
 flops inhomo. stacks                           0       0.0%      0.0%      0.0%
 flops total                         0.000000E+00       0.0%      0.0%      0.0%
 flops max/rank                      0.000000E+00       0.0%      0.0%      0.0%
 matmuls inhomo. stacks                         0       0.0%      0.0%      0.0%
 matmuls total                                  0       0.0%      0.0%      0.0%
 number of processed stacks                     0       0.0%      0.0%      0.0%
 average stack size                                     0.0       0.0       0.0
 marketing flops                     0.000000E+00
 -------------------------------------------------------------------------------
 -                                                                             -
 -                      DBCSR MESSAGE PASSING PERFORMANCE                      -
 -                                                                             -
 -------------------------------------------------------------------------------
 ROUTINE             CALLS      AVE VOLUME [Bytes]
 MP_Bcast                1                     12.
 MP_Allreduce           19                     21.
 MP_Alltoall        604864                   2206.
 -------------------------------------------------------------------------------

 -------------------------------------------------------------------------------
 -                                                                             -
 -                                DBM STATISTICS                               -
 -                                                                             -
 -------------------------------------------------------------------------------
    M  x    N  x    K                                          COUNT     PERCENT
 -------------------------------------------------------------------------------

 -------------------------------------------------------------------------------
 -                                                                             -
 -                                GRID STATISTICS                              -
 -                                                                             -
 -------------------------------------------------------------------------------
 LP    KERNEL             BACKEND                              COUNT     PERCENT
 4     collocate general  CPU                                 406512      50.94%
 4     integrate general  CPU                                 391456      49.06%
 0     collocate general  CPU                                      4       0.00%
 0     integrate general  CPU                                      2       0.00%
 -------------------------------------------------------------------------------

 MEMORY| Estimated peak process memory [MiB]                                 345

 -------------------------------------------------------------------------------
 ----                             MULTIGRID INFO                            ----
 -------------------------------------------------------------------------------
 count for grid        1:          24546          cutoff [a.u.]          500.00
 count for grid        2:          16870          cutoff [a.u.]          166.67
 count for grid        3:          13372          cutoff [a.u.]           55.56
 count for grid        4:          14938          cutoff [a.u.]           18.52
 total gridlevel count  :          69726

 -------------------------------------------------------------------------------
 -                                                                             -
 -                         MESSAGE PASSING PERFORMANCE                         -
 -                                                                             -
 -------------------------------------------------------------------------------

 ROUTINE             CALLS      AVE VOLUME [Bytes]
 MP_Group                6
 MP_Bcast           243355                   1480.
 MP_Allreduce       160343                     21.
 MP_Sync                 4
 MP_Alltoall           473                1574223.
 MP_SendRecv           770                  94773.
 MP_ISendRecv          735                  93049.
 MP_Wait            167987
 MP_comm_split           4
 MP_ISend           178124                    306.
 MP_IRecv           284288                    194.
 -------------------------------------------------------------------------------


 -------------------------------------------------------------------------------
 -                                                                             -
 -                           R E F E R E N C E S                               -
 -                                                                             -
 -------------------------------------------------------------------------------
 
 CP2K version 2025.1 (Development Version), the CP2K developers group (2025).
 CP2K is freely available from https://www.cp2k.org/ .
 
 T. D. Kuehne, M. Iannuzzi, M. Del Ben, V. V. Rybkin, P. Seewald, F. Stein, T. 
 Laino, R. Z. Khaliullin, O. Schuett, F. Schiffmann, D. Golze, J. Wilhelm, S. 
 Chulkov, M. H. Bani-Hashemian, V. Weber, U. Borstnik, M. Taillefumier, A. S. 
 Jakobovits, A. Lazzaro, H. Pabst, T. Mueller, R. Schade, M. Guidon, S. 
 Andermatt, N. Holmberg, G. K. Schenter, A. Hehn, A. Bussy, F. Belleflamme, G. 
 Tabacchi, A. Gloess, M. Lass, I. Bethune, C. J. Mundy, C. Plessl, M. Watkins, 
 J. VandeVondele, M. Krack, J. Hutter.
 J. Chem. Phys. 152, 194103 (2020).
 CP2K: An electronic structure and molecular dynamics software package - 
 Quickstep: Efficient and accurate electronic structure calculations.
 https://doi.org/10.1063/5.0007045

 O. Schuett, P. Messmer, J. Hutter, J. VandeVondele.
 Electronic Structure Calculations on Graphics Processing Units, 173-190 (2016).
 GPU-Accelerated Sparse Matrix-Matrix Multiplication for Linear Scaling Density 
 Functional Theory.
 https://doi.org/10.1002/9781118670712.ch8

 J. Hutter, M. Iannuzzi, F. Schiffmann, J. VandeVondele.
 WIREs Comput Mol Sci. 4, 15-25 (2014).
 CP2K: atomistic simulations of condensed matter systems.
 https://doi.org/10.1002/wcms.1159

 U. Borstnik, J. VandeVondele, V. Weber, J. Hutter.
 Parallel Comput. 40, 47-58 (2014).
 Sparse matrix multiplication: The distributed block-compressed sparse row 
 library.
 https://doi.org/10.1016/j.parco.2014.03.012

 J. VandeVondele, J. Hutter.
 J. Chem. Phys. 127, 114105 (2007).
 Gaussian basis sets for accurate calculations on molecular systems in gas and 
 condensed phases.
 https://doi.org/10.1063/1.2770708

 J. VandeVondele, M. Krack, F. Mohamed, M. Parrinello, T. Chassaing, J. Hutter.
 Comput. Phys. Commun. 167, 103-128 (2005).
 QUICKSTEP: Fast and accurate density functional calculations using a mixed 
 Gaussian and plane waves approach.
 https://doi.org/10.1016/j.cpc.2004.12.014

 M. Krack.
 Theor. Chem. Acc. 114, 145-152 (2005).
 Pseudopotentials for H to Kr optimized for gradient-corrected 
 exchange-correlation functionals.
 https://doi.org/10.1007/s00214-005-0655-y

 M. Frigo, S. G. Johnson.
 Proc. IEEE 93, 216-231 (2005).
 The design and implementation of FFTW3.
 https://doi.org/10.1109/JPROC.2004.840301

 C. Hartwigsen, S. Goedecker, J. Hutter.
 Phys. Rev. B 58, 3641-3662 (1998).
 Relativistic separable dual-space Gaussian pseudopotentials from H to Rn.
 https://doi.org/10.1103/PhysRevB.58.3641

 G. Lippert, J. Hutter, M. Parrinello.
 Mol. Phys. 92, 477-487 (1997).
 A hybrid Gaussian and plane wave density functional scheme.
 https://doi.org/10.1080/002689797170220

 S. Goedecker, M. Teter, J. Hutter.
 Phys. Rev. B 54, 1703-1710 (1996).
 Separable dual-space Gaussian pseudopotentials.
 https://doi.org/10.1103/PhysRevB.54.1703

 J. P. Perdew, K. Burke, M. Ernzerhof.
 Phys. Rev. Lett. 77, 3865-3868 (1996).
 Generalized gradient approximation made simple.
 https://doi.org/10.1103/PhysRevLett.77.3865


 -------------------------------------------------------------------------------
 -                                                                             -
 -                                T I M I N G                                  -
 -                                                                             -
 -------------------------------------------------------------------------------
 SUBROUTINE                       CALLS  ASD         SELF TIME        TOTAL TIME
                                MAXIMUM       AVERAGE  MAXIMUM  AVERAGE  MAXIMUM
 CP2K                                 1  1.0    0.018    0.020  173.451  173.451
 qs_energies                          1  2.0    0.020    0.108  173.212  173.263
 scf_env_do_scf                       1  3.0    0.000    0.000  167.539  167.539
 scf_env_do_scf_inner_loop           26  4.0    0.046    0.049  167.539  167.539
 do_general_diag_kp                  27  5.9    0.141    0.165  155.078  156.491
 qs_scf_new_mos_kp                   26  5.0    0.000    0.000  152.717  154.122
 mp_alltoall_i22                 103128  8.7  109.964  134.978  109.964  134.978
 dbcsr_desymmetrize_deep          58516  7.4    0.838    0.950   82.182   99.658
 rskp_transform                   13608  6.9   15.862   86.283   15.862   86.283
 dbcsr_complete_redistribute      44612  8.2    1.345    1.522   44.312   51.768
 kpoint_density_transform            26  7.0    0.079    0.092   43.955   44.080
 copy_fm_to_dbcsr                 13312  8.0    0.076    0.085   35.353   42.615
 transform_dmat                    6656  8.0    7.282   39.176    7.282   39.176
 copy_dbcsr_to_fm                 31300  6.8    0.309    0.337   14.477   14.667
 qs_ks_update_qs_env                 26  5.0    0.000    0.000    3.896    9.968
 rebuild_ks_matrix                   26  6.0    0.000    0.000    2.405    8.477
 qs_ks_build_kohn_sham_matrix        26  7.0    0.088    0.090    2.405    8.477
 transfer_rs2pw                     110  8.0    0.001    0.001    6.574    8.097
 transfer_rs2pw_500                  29  8.9    0.029    0.035    6.544    8.069
 mp_sendrecv_dv                     770 10.0    6.536    8.061    6.536    8.061
 sum_up_and_integrate                26  8.0    0.000    0.000    1.607    7.631
 integrate_v_rspace                  26  9.0    0.029    0.154    1.607    7.630
 grid_integrate_task_list            26 10.0    1.405    7.353    1.405    7.353
 qs_rho_update_rho_low               27  5.0    0.000    0.000    6.861    6.873
 calculate_rho_elec                  27  6.0    0.010    0.020    6.861    6.873
 density_rs2pw                       27  7.0    0.001    0.001    5.548    6.824
 grid_collocate_task_list            27  7.0    1.301    6.621    1.301    6.621
 dbcsr_finalize                  136116  8.1    0.503    0.527    3.524    3.695
 cp_fm_start_copy_general         40528  7.3    0.505    0.774    3.142    3.177
 mp_alltoall_d11v                309384  9.3    2.768    2.936    2.768    2.936
 write_kpoints_restart               26  5.0    0.016    0.020    2.819    2.819
 mp_cart_sub                      62602  8.8    2.531    2.547    2.531    2.547
 cp_dbcsr_alloc_block_from_nbl    14452  5.0    0.443    2.214    0.474    2.316
 dbcsr_merge_all                  44612 10.2    1.229    1.403    2.010    2.196
 dbcsr_dot                       106185  8.0    0.433    0.578    1.935    2.058
 hybrid_alltoall_any              58516  8.4    0.226    0.247    1.832    1.950
 qs_energies_init_hamiltonians        1  3.0    0.000    0.000    1.870    1.870
 mp_alltoall_i11v                192352  8.9    1.726    1.767    1.726    1.767
 mp_sum_d                        106807  9.0    1.491    1.725    1.491    1.725
 evaluate_core_matrix_traces         26  6.0    0.000    0.000    1.491    1.491
 calculate_ptrace_kp                 52  7.0    0.079    0.086    1.491    1.491
 build_core_hamiltonian_matrix        1  4.0    0.007    0.008    0.367    1.460
 mp_cart_create                   31307  8.8    1.377    1.426    1.377    1.426
 qs_env_update_s_mstruct              1  4.0    0.000    0.000    1.192    1.392
 calculate_rho_core                   1  5.0    0.001    0.002    1.104    1.371
 mp_allgather_i                   81056  8.3    1.224    1.309    1.224    1.309
 dbcsr_copy                      121538  6.7    0.651    0.712    1.021    1.224
 dbcsr_create_new                268404  7.8    0.854    0.892    1.035    1.105
 mp_bcast_iv                     162136  8.3    0.957    1.094    0.957    1.094
 dbcsr_work_create               103128  8.7    0.607    0.643    0.981    1.084
 cp_fm_write_unformatted           4084  6.0    0.780    0.981    0.787    1.009
 self_consistency_check              26  5.0    0.075    0.080    0.897    0.926
 dbcsr_iterator_start            442897  8.7    0.779    0.818    0.891    0.923
 init_scf_run                         1  3.0    0.000    0.000    0.799    0.920
 scf_env_initial_rho_setup            1  4.0    0.000    0.000    0.798    0.920
 dbcsr_data_new                 1126881  9.6    0.660    0.788    0.660    0.788
 cp_sm_mix                        53092  6.0    0.138    0.222    0.750    0.787
 dbcsr_work_destroy_all          103128  9.7    0.490    0.498    0.737    0.747
 cp_cfm_geeig_canon                 869  6.9    0.005    0.005    0.728    0.744
 cp_cfm_heevd                      1738  7.9    0.002    0.002    0.675    0.689
 cp_cfm_heevd_base                 1738  8.9    0.673    0.687    0.673    0.687
 mixing_allocate                      1  3.0    0.012    0.012    0.164    0.687
 copy_dbcsr_to_fm_bc              31300  7.8    0.291    0.302    0.660    0.666
 calculate_first_density_matrix       1  5.0    0.001    0.001    0.531    0.652
 calculate_atomic_block_dm            1  6.0    0.001    0.001    0.527    0.649
 tree_to_linear_d                 44612 11.2    0.614    0.637    0.614    0.637
 copy_fm_to_dbcsr_bc              13312  9.0    0.168    0.182    0.575    0.619
 dbcsr_iterator_stop             442897  8.7    0.502    0.511    0.595    0.603
 dbcsr_data_release             1686810 10.0    0.542    0.578    0.542    0.578
 mp_max_d                         53094  7.0    0.485    0.542    0.485    0.542
 dbcsr_destroy                   162220  7.8    0.258    0.275    0.445    0.477
 fft_wrap_pw1pw2                    473 10.0    0.003    0.004    0.402    0.415
 fft_wrap_pw1pw2_500                314 11.3    0.019    0.020    0.365    0.381
 build_overlap_matrix_low             1  5.0    0.016    0.031    0.091    0.365
 build_kinetic_matrix_low             1  5.0    0.016    0.030    0.090    0.363
 calculate_ecore_overlap              1  4.0    0.000    0.000    0.291    0.358
 fft3d_ps                           473 12.0    0.100    0.105    0.343    0.354
 qs_env_rebuild_rho                   1  5.0    0.000    0.000    0.082    0.343
 qs_rho_rebuild                       1  6.0    0.006    0.006    0.082    0.343
 build_core_ppnl                      1  5.0    0.075    0.341    0.075    0.341
 mp_bcast_im                      81056  8.3    0.291    0.328    0.291    0.328
 dbcsr_copy_into_existing         15354  9.5    0.112    0.236    0.197    0.327
 kpoint_set_mo_occupation            26  7.0    0.300    0.301    0.319    0.326
 mp_sum_iv                           24  5.3    0.262    0.323    0.262    0.323
 qs_scf_ensure_work_matrices          1  3.0    0.000    0.000    0.262    0.323
 quick_finalize                   58516  9.4    0.144    0.185    0.241    0.322
 dbcsr_set                       190369  7.4    0.165    0.174    0.240    0.316
 mp_waitall_1                    167987  8.3    0.129    0.269    0.129    0.269
 qs_vxc_create                       26  8.0    0.000    0.000    0.238    0.239
 xc_vxc_pw_create                    26  9.0    0.008    0.009    0.238    0.239
 mp_alltoall_z22v                   473 14.0    0.211    0.229    0.211    0.229
 mp_comm_free                     93943  8.8    0.208    0.227    0.208    0.227
 potential_pw2rs                     26 10.0    0.001    0.001    0.172    0.190
 dbcsr_reserve_blocks             27764  8.4    0.079    0.146    0.094    0.172
 xc_pw_derive                       156 11.0    0.000    0.000    0.157    0.163
 gspace_mixing                       25  5.0    0.006    0.007    0.161    0.161
 yz_to_x                            213 12.8    0.009    0.010    0.133    0.144
 dbcsr_zero                      190369  8.4    0.075    0.142    0.075    0.142
 dbcsr_iterator_seek             442897  9.7    0.113    0.138    0.113    0.138
 dbcsr_sort_indices              130892 10.8    0.072    0.138    0.072    0.138
 cp_fm_finish_copy_general        16788  7.8    0.091    0.105    0.112    0.137
 dbcsr_make_index_exist          268404  8.8    0.118    0.137    0.118    0.137
 broyden_mixing                      25  6.0    0.123    0.127    0.128    0.128
 xc_rho_set_and_dset_create          26 10.0    0.007    0.007    0.121    0.125
 mp_sum_dv                          321  3.3    0.060    0.117    0.060    0.117
 kpoint_density_matrices             26  7.0    0.008    0.009    0.110    0.116
 xc_pw_divergence                    26 10.0    0.000    0.000    0.106    0.112
 x_to_yz                            260 13.2    0.019    0.022    0.106    0.111
 parallel_gemm_fm                  3328  8.0    0.003    0.003    0.100    0.105
 parallel_gemm_fm_gemm             3328  9.0    0.003    0.003    0.097    0.102
 restraint_control                    1  2.0    0.000    0.000    0.051    0.101
 mp_sum_i                             4  2.8    0.051    0.101    0.051    0.101
 cp_fm_gemm                        3328 10.0    0.094    0.099    0.094    0.099
 dbcsr_reserve_all_blocks         13312 10.0    0.019    0.022    0.087    0.098
 merge_index                      44612 11.2    0.089    0.094    0.089    0.094
 parser_read_line                  5733  4.1    0.002    0.002    0.083    0.086
 parser_read_line_low                23  6.2    0.008    0.033    0.081    0.084
 transfer_pw2rs                     105 11.0    0.001    0.001    0.083    0.084
 mp_irecv_iv                     162112  8.3    0.010    0.080    0.010    0.080
 broadcast_input_information         23  7.2    0.026    0.029    0.073    0.080
 dbcsr_switch_data_area           58516 10.4    0.053    0.053    0.069    0.070
 mp_isend_dv                      41120  8.2    0.059    0.063    0.059    0.063
 transfer_pw2rs_500                  27 11.9    0.030    0.032    0.059    0.062
 topology_control                     1  2.0    0.000    0.000    0.059    0.062
 cp_fm_cleanup_copy_general       28880  7.0    0.033    0.036    0.053    0.059
 create_qs_kind_set                   1  2.0    0.000    0.000    0.058    0.058
 read_qs_kind                         1  3.0    0.029    0.032    0.058    0.058
 mp_isend_iv                      91336  8.3    0.014    0.054    0.014    0.054
 scf_post_calculation_gpw             1  3.0    0.000    0.000    0.047    0.047
 write_available_results              1  4.0    0.000    0.000    0.047    0.047
 write_mo_free_results                1  5.0    0.001    0.001    0.047    0.047
 cp_cfm_gemm                       2607  7.9    0.043    0.045    0.043    0.045
 read_cell_cif                        2  4.5    0.002    0.004    0.040    0.042
 xc_functional_eval                  26 11.0    0.000    0.000    0.035    0.040
 pbe_lda_eval                        26 12.0    0.035    0.039    0.035    0.039
 dbcsr_distribution_new           44614  8.5    0.032    0.039    0.032    0.039
 mp_irecv_im2                     81056  8.3    0.005    0.039    0.005    0.039
 dbcsr_get_data_size_used        103128  9.7    0.033    0.038    0.033    0.038
 coordinate_control                   1  3.0    0.000    0.001    0.036    0.037
 coordinate_control_READ_COORDI       1  4.0    0.000    0.000    0.036    0.037
 read_coordinate_cif                  1  5.0    0.002    0.002    0.036    0.037
 qs_create_task_list                  1  5.0    0.000    0.000    0.007    0.037
 generate_qs_task_list                1  6.0    0.005    0.028    0.007    0.036
 mp_bcast_i_src                      92  8.2    0.027    0.036    0.027    0.036
 kpoint_init_cell_index               2  3.5    0.024    0.031    0.034    0.035
 mp_comm_size                    107131  9.0    0.027    0.033    0.027    0.033
 dbcsr_make_dbcsr_index          130892 10.8    0.032    0.033    0.032    0.033
 dbcsr_data_copy_aa2              44612 10.9    0.017    0.030    0.017    0.030
 mp_recv_dv                       12252  7.0    0.003    0.028    0.003    0.028
 mp_bcast_am_src                     23  8.2    0.014    0.014    0.018    0.027
 mp_comm_rank                    107131  9.0    0.024    0.027    0.024    0.027
 transfer_rs2pw_170                  27  9.0    0.005    0.006    0.021    0.027
 mp_sum_dm3                          26  8.0    0.019    0.025    0.019    0.025
 mp_irecv_dv                      41120  8.2    0.023    0.025    0.023    0.025
 mp_isend_im2                     45668  8.3    0.006    0.025    0.006    0.025
 fft_wrap_pw1pw2_170                 53 10.5    0.001    0.001    0.019    0.020
 pw_scatter_p                       260 12.2    0.018    0.020    0.018    0.020
 qs_init_subsys                       1  2.0    0.001    0.002    0.019    0.020
 pw_poisson_solve                    26  8.0    0.000    0.000    0.018    0.019
 hirshfeld_integration                1  6.0    0.004    0.016    0.018    0.018
 mp_isendrecv_dv                    735 13.0    0.009    0.018    0.009    0.018
 transfer_pw2rs_170                  26 12.0    0.005    0.005    0.015    0.018
 -------------------------------------------------------------------------------

 The number of warnings for this run is : 1
 
 -------------------------------------------------------------------------------
  **** **** ******  **  PROGRAM ENDED AT                 2025-08-04 14:17:25.293
 ***** ** ***  *** **   PROGRAM RAN ON                              i06r03c01s03
 **    ****   ******    PROGRAM RAN BY                                   di38fab
 ***** **    ** ** **   PROGRAM PROCESS ID                               2093275
  **** **  *******  **  PROGRAM STOPPED IN /hppfs/scratch/04/di38fab/09_GTH/Delt
                                           a_Set/Zn/aug-SZV-MOLOPT-GTH-tier-1/8x
                                           8x8
