 DBCSR| CPU Multiplication driver                                           BLAS (U)
 DBCSR| Multrec recursion limit                                              512 (U)
 DBCSR| Multiplication stack size                                           1000 (D)
 DBCSR| Maximum elements for images                                    UNLIMITED (U)
 DBCSR| Multiplicative factor virtual images                                   1 (U)
 DBCSR| Use multiplication densification                                       T (D)
 DBCSR| Multiplication size stacks                                             3 (U)
 DBCSR| Use memory pool for CPU allocation                                     F (U)
 DBCSR| Number of 3D layers                                               SINGLE (U)
 DBCSR| Use MPI memory allocation                                              F (U)
 DBCSR| Use RMA algorithm                                                      F (U)
 DBCSR| Use Communication thread                                               T (U)
 DBCSR| Communication thread load                                             45 (D)
 DBCSR| MPI: My process id                                                     0
 DBCSR| MPI: Number of processes                                               8
 DBCSR| OMP: Current number of threads                                        12
 DBCSR| OMP: Max number of threads                                            12
 DBCSR| Split modifier for TAS multiplication algorithm                  1.0E+00 (U)


  **** **** ******  **  PROGRAM STARTED AT               2025-08-05 00:21:21.949
 ***** ** ***  *** **   PROGRAM STARTED ON                          i02r11c03s12
 **    ****   ******    PROGRAM STARTED BY                               di38fab
 ***** **    ** ** **   PROGRAM PROCESS ID                               2582656
  **** **  *******  **  PROGRAM STARTED IN /hppfs/scratch/04/di38fab/09_GTH/Delt
                                           a_Set/Cl/aug-DZVP-MOLOPT-GTH-tier-2-S
                                           R/8x8x8

 CP2K| version string:                 CP2K version 2025.1 (Development Version)
 CP2K| source code revision number:                                  git:3130539
 CP2K| cp2kflags: omp libint fftw3 libxc parallel scalapack max_contr=4         
 CP2K| is freely available from                            https://www.cp2k.org/
 CP2K| Program compiled at                         Tue Jun  3 16:14:32 CEST 2025
 CP2K| Program compiled on                                               login01
 CP2K| Program compiled for                                        Supermuc-foss
 CP2K| Data directory path                  /hppfs/work/pn36zo/di38fab/cp2k/data
 CP2K| Input file name                                                    GW.inp

 GLOBAL| Force Environment number                                              1
 GLOBAL| Basis set file name            /hppfs/scratch/04/di38fab/09_GTH/BASIS_A
 GLOBAL| Potential file name            /hppfs/work/pn36zo/di38fab/cp2k/data/GTH
 GLOBAL| MM Potential file name                                     MM_POTENTIAL
 GLOBAL| Coordinate file name                                             Cl.cif
 GLOBAL| Method name                                                        CP2K
 GLOBAL| Project name                                                       WSe2
 GLOBAL| Run type                                                         ENERGY
 GLOBAL| FFT library                                                       FFTW3
 GLOBAL| Diagonalization library                                       ScaLAPACK
 GLOBAL| Cholesky decomposition library                                ScaLAPACK
 GLOBAL| DGEMM library                                                      BLAS
 GLOBAL| Orthonormality check for eigenvectors                          DISABLED
 GLOBAL| Matrix multiplication library                                 ScaLAPACK
 GLOBAL| All-to-all communication in single precision                          F
 GLOBAL| FFTs using library dependent lengths                                  F
 GLOBAL| Grid backend                                                       AUTO
 GLOBAL| Global print level                                               MEDIUM
 GLOBAL| MPI I/O enabled                                                       T
 GLOBAL| Total number of message passing processes                             8
 GLOBAL| Number of threads for this process                                   12
 GLOBAL| This output is from process                                           0
 GLOBAL| OpenMP stack size per thread (OMP_STACKSIZE)                    default
 GLOBAL| CPU model name             Intel(R) Xeon(R) Platinum 8174 CPU @ 3.10GHz

 MEMORY| system memory details [Kb]
 MEMORY|                        rank 0           min           max       average
 MEMORY| MemTotal             98436664      98436664      98436664      98436664
 MEMORY| MemFree              84838372      84681084      84838372      84759728
 MEMORY| Buffers                     0             0             0             0
 MEMORY| Cached                2361524       2361056       2361524       2361290
 MEMORY| Slab                  1282024       1282024       1293008       1287516
 MEMORY| SReclaimable           276688        276688        282764        279726
 MEMORY| MemLikelyFree        87476584      87324904      87476584      87400744


 *** Fundamental physical constants (SI units) ***

 *** Literature: B. J. Mohr and B. N. Taylor,
 ***             CODATA recommended values of the fundamental physical
 ***             constants: 2006, Web Version 5.1
 ***             http://physics.nist.gov/constants

 Speed of light in vacuum [m/s]                             2.99792458000000E+08
 Magnetic constant or permeability of vacuum [N/A**2]       1.25663706143592E-06
 Electric constant or permittivity of vacuum [F/m]          8.85418781762039E-12
 Planck constant (h) [J*s]                                  6.62606896000000E-34
 Planck constant (h-bar) [J*s]                              1.05457162825177E-34
 Elementary charge [C]                                      1.60217648700000E-19
 Electron mass [kg]                                         9.10938215000000E-31
 Electron g factor [ ]                                     -2.00231930436220E+00
 Proton mass [kg]                                           1.67262163700000E-27
 Fine-structure constant                                    7.29735253760000E-03
 Rydberg constant [1/m]                                     1.09737315685270E+07
 Avogadro constant [1/mol]                                  6.02214179000000E+23
 Boltzmann constant [J/K]                                   1.38065040000000E-23
 Atomic mass unit [kg]                                      1.66053878200000E-27
 Bohr radius [m]                                            5.29177208590000E-11

 *** Conversion factors ***

 [u] -> [a.u.]                                              1.82288848426455E+03
 [Angstrom] -> [Bohr] = [a.u.]                              1.88972613288564E+00
 [a.u.] = [Bohr] -> [Angstrom]                              5.29177208590000E-01
 [a.u.] -> [s]                                              2.41888432650478E-17
 [a.u.] -> [fs]                                             2.41888432650478E-02
 [a.u.] -> [J]                                              4.35974393937059E-18
 [a.u.] -> [N]                                              8.23872205491840E-08
 [a.u.] -> [K]                                              3.15774647902944E+05
 [a.u.] -> [kJ/mol]                                         2.62549961709828E+03
 [a.u.] -> [kcal/mol]                                       6.27509468713739E+02
 [a.u.] -> [Pa]                                             2.94210107994716E+13
 [a.u.] -> [bar]                                            2.94210107994716E+08
 [a.u.] -> [atm]                                            2.90362800883016E+08
 [a.u.] -> [eV]                                             2.72113838565563E+01
 [a.u.] -> [Hz]                                             6.57968392072181E+15
 [a.u.] -> [1/cm] (wave numbers)                            2.19474631370540E+05
 [a.u./Bohr**2] -> [1/cm]                                   5.14048714338585E+03
 

 CELL_TOP| Volume [angstrom^3]:                                       305.428517
 CELL_TOP| Vector a [angstrom     7.779     0.000     0.000   |a| =     7.778750
 CELL_TOP| Vector b [angstrom     0.000     4.349     0.000   |b| =     4.349410
 CELL_TOP| Vector c [angstrom     0.000     0.000     9.028   |c| =     9.027540
 CELL_TOP| Angle (b,c), alpha [degree]:                                90.000000
 CELL_TOP| Angle (a,c), beta  [degree]:                                90.000000
 CELL_TOP| Angle (a,b), gamma [degree]:                                90.000000
 CELL_TOP| Numerically orthorhombic:                                         YES
 CELL_TOP| Periodicity                                                       XYZ

 CELL_CIF| Volume [angstrom^3]:                                       305.428517
 CELL_CIF| Vector a [angstrom     7.779     0.000     0.000   |a| =     7.778750
 CELL_CIF| Vector b [angstrom     0.000     4.349     0.000   |b| =     4.349410
 CELL_CIF| Vector c [angstrom     0.000     0.000     9.028   |c| =     9.027540
 CELL_CIF| Angle (b,c), alpha [degree]:                                90.000000
 CELL_CIF| Angle (a,c), beta  [degree]:                                90.000000
 CELL_CIF| Angle (a,b), gamma [degree]:                                90.000000
 CELL_CIF| Numerically orthorhombic:                                         YES
 CELL_CIF| Periodicity                                                       XYZ

 GENERATE|  Preliminary Number of Bonds generated:                             0
 GENERATE|  Achieved consistency in connectivity generation.

 CELL| Volume [angstrom^3]:                                           305.428517
 CELL| Vector a [angstrom]:       7.779     0.000     0.000   |a| =     7.778750
 CELL| Vector b [angstrom]:       0.000     4.349     0.000   |b| =     4.349410
 CELL| Vector c [angstrom]:       0.000     0.000     9.028   |c| =     9.027540
 CELL| Angle (b,c), alpha [degree]:                                    90.000000
 CELL| Angle (a,c), beta  [degree]:                                    90.000000
 CELL| Angle (a,b), gamma [degree]:                                    90.000000
 CELL| Numerically orthorhombic:                                             YES
 CELL| Periodicity                                                           XYZ

 CELL_REF| Volume [angstrom^3]:                                       305.428517
 CELL_REF| Vector a [angstrom     7.779     0.000     0.000   |a| =     7.778750
 CELL_REF| Vector b [angstrom     0.000     4.349     0.000   |b| =     4.349410
 CELL_REF| Vector c [angstrom     0.000     0.000     9.028   |c| =     9.027540
 CELL_REF| Angle (b,c), alpha [degree]:                                90.000000
 CELL_REF| Angle (a,c), beta  [degree]:                                90.000000
 CELL_REF| Angle (a,b), gamma [degree]:                                90.000000
 CELL_REF| Numerically orthorhombic:                                         YES
 CELL_REF| Periodicity                                                       XYZ

 *** WARNING in cryssym.F:180 :: Symmetry library SPGLIB not available ***


 *******************************************************************************
                                    Kpoints
 *******************************************************************************
 BRILLOUIN| K-point scheme                                        Monkhorst-Pack
 BRILLOUIN| K-Point grid                                             8    8    8
 BRILLOUIN| Accuracy in Symmetry determination                      0.100000E-05
 BRILLOUIN| K-Point point group symmetrization                               OFF
 BRILLOUIN| Wavefunction type                                            COMPLEX
 BRILLOUIN| List of Kpoints [2 Pi/Bohr]                                      256
 BRILLOUIN| Number           Weight            X              Y              Z
 BRILLOUIN|     1           0.00391       -0.43750       -0.43750       -0.43750
 BRILLOUIN|     2           0.00391       -0.43750       -0.43750       -0.31250
 BRILLOUIN|     3           0.00391       -0.43750       -0.43750       -0.18750
 BRILLOUIN|     4           0.00391       -0.43750       -0.43750       -0.06250
 BRILLOUIN|     5           0.00391       -0.43750       -0.43750        0.06250
 BRILLOUIN|     6           0.00391       -0.43750       -0.43750        0.18750
 BRILLOUIN|     7           0.00391       -0.43750       -0.43750        0.31250
 BRILLOUIN|     8           0.00391       -0.43750       -0.43750        0.43750
 BRILLOUIN|     9           0.00391       -0.43750       -0.31250       -0.43750
 BRILLOUIN|    10           0.00391       -0.43750       -0.31250       -0.31250
 BRILLOUIN|    11           0.00391       -0.43750       -0.31250       -0.18750
 BRILLOUIN|    12           0.00391       -0.43750       -0.31250       -0.06250
 BRILLOUIN|    13           0.00391       -0.43750       -0.31250        0.06250
 BRILLOUIN|    14           0.00391       -0.43750       -0.31250        0.18750
 BRILLOUIN|    15           0.00391       -0.43750       -0.31250        0.31250
 BRILLOUIN|    16           0.00391       -0.43750       -0.31250        0.43750
 BRILLOUIN|    17           0.00391       -0.43750       -0.18750       -0.43750
 BRILLOUIN|    18           0.00391       -0.43750       -0.18750       -0.31250
 BRILLOUIN|    19           0.00391       -0.43750       -0.18750       -0.18750
 BRILLOUIN|    20           0.00391       -0.43750       -0.18750       -0.06250
 BRILLOUIN|    21           0.00391       -0.43750       -0.18750        0.06250
 BRILLOUIN|    22           0.00391       -0.43750       -0.18750        0.18750
 BRILLOUIN|    23           0.00391       -0.43750       -0.18750        0.31250
 BRILLOUIN|    24           0.00391       -0.43750       -0.18750        0.43750
 BRILLOUIN|    25           0.00391       -0.43750       -0.06250       -0.43750
 BRILLOUIN|    26           0.00391       -0.43750       -0.06250       -0.31250
 BRILLOUIN|    27           0.00391       -0.43750       -0.06250       -0.18750
 BRILLOUIN|    28           0.00391       -0.43750       -0.06250       -0.06250
 BRILLOUIN|    29           0.00391       -0.43750       -0.06250        0.06250
 BRILLOUIN|    30           0.00391       -0.43750       -0.06250        0.18750
 BRILLOUIN|    31           0.00391       -0.43750       -0.06250        0.31250
 BRILLOUIN|    32           0.00391       -0.43750       -0.06250        0.43750
 BRILLOUIN|    33           0.00391       -0.43750        0.06250       -0.43750
 BRILLOUIN|    34           0.00391       -0.43750        0.06250       -0.31250
 BRILLOUIN|    35           0.00391       -0.43750        0.06250       -0.18750
 BRILLOUIN|    36           0.00391       -0.43750        0.06250       -0.06250
 BRILLOUIN|    37           0.00391       -0.43750        0.06250        0.06250
 BRILLOUIN|    38           0.00391       -0.43750        0.06250        0.18750
 BRILLOUIN|    39           0.00391       -0.43750        0.06250        0.31250
 BRILLOUIN|    40           0.00391       -0.43750        0.06250        0.43750
 BRILLOUIN|    41           0.00391       -0.43750        0.18750       -0.43750
 BRILLOUIN|    42           0.00391       -0.43750        0.18750       -0.31250
 BRILLOUIN|    43           0.00391       -0.43750        0.18750       -0.18750
 BRILLOUIN|    44           0.00391       -0.43750        0.18750       -0.06250
 BRILLOUIN|    45           0.00391       -0.43750        0.18750        0.06250
 BRILLOUIN|    46           0.00391       -0.43750        0.18750        0.18750
 BRILLOUIN|    47           0.00391       -0.43750        0.18750        0.31250
 BRILLOUIN|    48           0.00391       -0.43750        0.18750        0.43750
 BRILLOUIN|    49           0.00391       -0.43750        0.31250       -0.43750
 BRILLOUIN|    50           0.00391       -0.43750        0.31250       -0.31250
 BRILLOUIN|    51           0.00391       -0.43750        0.31250       -0.18750
 BRILLOUIN|    52           0.00391       -0.43750        0.31250       -0.06250
 BRILLOUIN|    53           0.00391       -0.43750        0.31250        0.06250
 BRILLOUIN|    54           0.00391       -0.43750        0.31250        0.18750
 BRILLOUIN|    55           0.00391       -0.43750        0.31250        0.31250
 BRILLOUIN|    56           0.00391       -0.43750        0.31250        0.43750
 BRILLOUIN|    57           0.00391       -0.43750        0.43750       -0.43750
 BRILLOUIN|    58           0.00391       -0.43750        0.43750       -0.31250
 BRILLOUIN|    59           0.00391       -0.43750        0.43750       -0.18750
 BRILLOUIN|    60           0.00391       -0.43750        0.43750       -0.06250
 BRILLOUIN|    61           0.00391       -0.43750        0.43750        0.06250
 BRILLOUIN|    62           0.00391       -0.43750        0.43750        0.18750
 BRILLOUIN|    63           0.00391       -0.43750        0.43750        0.31250
 BRILLOUIN|    64           0.00391       -0.43750        0.43750        0.43750
 BRILLOUIN|    65           0.00391       -0.31250       -0.43750       -0.43750
 BRILLOUIN|    66           0.00391       -0.31250       -0.43750       -0.31250
 BRILLOUIN|    67           0.00391       -0.31250       -0.43750       -0.18750
 BRILLOUIN|    68           0.00391       -0.31250       -0.43750       -0.06250
 BRILLOUIN|    69           0.00391       -0.31250       -0.43750        0.06250
 BRILLOUIN|    70           0.00391       -0.31250       -0.43750        0.18750
 BRILLOUIN|    71           0.00391       -0.31250       -0.43750        0.31250
 BRILLOUIN|    72           0.00391       -0.31250       -0.43750        0.43750
 BRILLOUIN|    73           0.00391       -0.31250       -0.31250       -0.43750
 BRILLOUIN|    74           0.00391       -0.31250       -0.31250       -0.31250
 BRILLOUIN|    75           0.00391       -0.31250       -0.31250       -0.18750
 BRILLOUIN|    76           0.00391       -0.31250       -0.31250       -0.06250
 BRILLOUIN|    77           0.00391       -0.31250       -0.31250        0.06250
 BRILLOUIN|    78           0.00391       -0.31250       -0.31250        0.18750
 BRILLOUIN|    79           0.00391       -0.31250       -0.31250        0.31250
 BRILLOUIN|    80           0.00391       -0.31250       -0.31250        0.43750
 BRILLOUIN|    81           0.00391       -0.31250       -0.18750       -0.43750
 BRILLOUIN|    82           0.00391       -0.31250       -0.18750       -0.31250
 BRILLOUIN|    83           0.00391       -0.31250       -0.18750       -0.18750
 BRILLOUIN|    84           0.00391       -0.31250       -0.18750       -0.06250
 BRILLOUIN|    85           0.00391       -0.31250       -0.18750        0.06250
 BRILLOUIN|    86           0.00391       -0.31250       -0.18750        0.18750
 BRILLOUIN|    87           0.00391       -0.31250       -0.18750        0.31250
 BRILLOUIN|    88           0.00391       -0.31250       -0.18750        0.43750
 BRILLOUIN|    89           0.00391       -0.31250       -0.06250       -0.43750
 BRILLOUIN|    90           0.00391       -0.31250       -0.06250       -0.31250
 BRILLOUIN|    91           0.00391       -0.31250       -0.06250       -0.18750
 BRILLOUIN|    92           0.00391       -0.31250       -0.06250       -0.06250
 BRILLOUIN|    93           0.00391       -0.31250       -0.06250        0.06250
 BRILLOUIN|    94           0.00391       -0.31250       -0.06250        0.18750
 BRILLOUIN|    95           0.00391       -0.31250       -0.06250        0.31250
 BRILLOUIN|    96           0.00391       -0.31250       -0.06250        0.43750
 BRILLOUIN|    97           0.00391       -0.31250        0.06250       -0.43750
 BRILLOUIN|    98           0.00391       -0.31250        0.06250       -0.31250
 BRILLOUIN|    99           0.00391       -0.31250        0.06250       -0.18750
 BRILLOUIN|   100           0.00391       -0.31250        0.06250       -0.06250
 BRILLOUIN|   101           0.00391       -0.31250        0.06250        0.06250
 BRILLOUIN|   102           0.00391       -0.31250        0.06250        0.18750
 BRILLOUIN|   103           0.00391       -0.31250        0.06250        0.31250
 BRILLOUIN|   104           0.00391       -0.31250        0.06250        0.43750
 BRILLOUIN|   105           0.00391       -0.31250        0.18750       -0.43750
 BRILLOUIN|   106           0.00391       -0.31250        0.18750       -0.31250
 BRILLOUIN|   107           0.00391       -0.31250        0.18750       -0.18750
 BRILLOUIN|   108           0.00391       -0.31250        0.18750       -0.06250
 BRILLOUIN|   109           0.00391       -0.31250        0.18750        0.06250
 BRILLOUIN|   110           0.00391       -0.31250        0.18750        0.18750
 BRILLOUIN|   111           0.00391       -0.31250        0.18750        0.31250
 BRILLOUIN|   112           0.00391       -0.31250        0.18750        0.43750
 BRILLOUIN|   113           0.00391       -0.31250        0.31250       -0.43750
 BRILLOUIN|   114           0.00391       -0.31250        0.31250       -0.31250
 BRILLOUIN|   115           0.00391       -0.31250        0.31250       -0.18750
 BRILLOUIN|   116           0.00391       -0.31250        0.31250       -0.06250
 BRILLOUIN|   117           0.00391       -0.31250        0.31250        0.06250
 BRILLOUIN|   118           0.00391       -0.31250        0.31250        0.18750
 BRILLOUIN|   119           0.00391       -0.31250        0.31250        0.31250
 BRILLOUIN|   120           0.00391       -0.31250        0.31250        0.43750
 BRILLOUIN|   121           0.00391       -0.31250        0.43750       -0.43750
 BRILLOUIN|   122           0.00391       -0.31250        0.43750       -0.31250
 BRILLOUIN|   123           0.00391       -0.31250        0.43750       -0.18750
 BRILLOUIN|   124           0.00391       -0.31250        0.43750       -0.06250
 BRILLOUIN|   125           0.00391       -0.31250        0.43750        0.06250
 BRILLOUIN|   126           0.00391       -0.31250        0.43750        0.18750
 BRILLOUIN|   127           0.00391       -0.31250        0.43750        0.31250
 BRILLOUIN|   128           0.00391       -0.31250        0.43750        0.43750
 BRILLOUIN|   129           0.00391       -0.18750       -0.43750       -0.43750
 BRILLOUIN|   130           0.00391       -0.18750       -0.43750       -0.31250
 BRILLOUIN|   131           0.00391       -0.18750       -0.43750       -0.18750
 BRILLOUIN|   132           0.00391       -0.18750       -0.43750       -0.06250
 BRILLOUIN|   133           0.00391       -0.18750       -0.43750        0.06250
 BRILLOUIN|   134           0.00391       -0.18750       -0.43750        0.18750
 BRILLOUIN|   135           0.00391       -0.18750       -0.43750        0.31250
 BRILLOUIN|   136           0.00391       -0.18750       -0.43750        0.43750
 BRILLOUIN|   137           0.00391       -0.18750       -0.31250       -0.43750
 BRILLOUIN|   138           0.00391       -0.18750       -0.31250       -0.31250
 BRILLOUIN|   139           0.00391       -0.18750       -0.31250       -0.18750
 BRILLOUIN|   140           0.00391       -0.18750       -0.31250       -0.06250
 BRILLOUIN|   141           0.00391       -0.18750       -0.31250        0.06250
 BRILLOUIN|   142           0.00391       -0.18750       -0.31250        0.18750
 BRILLOUIN|   143           0.00391       -0.18750       -0.31250        0.31250
 BRILLOUIN|   144           0.00391       -0.18750       -0.31250        0.43750
 BRILLOUIN|   145           0.00391       -0.18750       -0.18750       -0.43750
 BRILLOUIN|   146           0.00391       -0.18750       -0.18750       -0.31250
 BRILLOUIN|   147           0.00391       -0.18750       -0.18750       -0.18750
 BRILLOUIN|   148           0.00391       -0.18750       -0.18750       -0.06250
 BRILLOUIN|   149           0.00391       -0.18750       -0.18750        0.06250
 BRILLOUIN|   150           0.00391       -0.18750       -0.18750        0.18750
 BRILLOUIN|   151           0.00391       -0.18750       -0.18750        0.31250
 BRILLOUIN|   152           0.00391       -0.18750       -0.18750        0.43750
 BRILLOUIN|   153           0.00391       -0.18750       -0.06250       -0.43750
 BRILLOUIN|   154           0.00391       -0.18750       -0.06250       -0.31250
 BRILLOUIN|   155           0.00391       -0.18750       -0.06250       -0.18750
 BRILLOUIN|   156           0.00391       -0.18750       -0.06250       -0.06250
 BRILLOUIN|   157           0.00391       -0.18750       -0.06250        0.06250
 BRILLOUIN|   158           0.00391       -0.18750       -0.06250        0.18750
 BRILLOUIN|   159           0.00391       -0.18750       -0.06250        0.31250
 BRILLOUIN|   160           0.00391       -0.18750       -0.06250        0.43750
 BRILLOUIN|   161           0.00391       -0.18750        0.06250       -0.43750
 BRILLOUIN|   162           0.00391       -0.18750        0.06250       -0.31250
 BRILLOUIN|   163           0.00391       -0.18750        0.06250       -0.18750
 BRILLOUIN|   164           0.00391       -0.18750        0.06250       -0.06250
 BRILLOUIN|   165           0.00391       -0.18750        0.06250        0.06250
 BRILLOUIN|   166           0.00391       -0.18750        0.06250        0.18750
 BRILLOUIN|   167           0.00391       -0.18750        0.06250        0.31250
 BRILLOUIN|   168           0.00391       -0.18750        0.06250        0.43750
 BRILLOUIN|   169           0.00391       -0.18750        0.18750       -0.43750
 BRILLOUIN|   170           0.00391       -0.18750        0.18750       -0.31250
 BRILLOUIN|   171           0.00391       -0.18750        0.18750       -0.18750
 BRILLOUIN|   172           0.00391       -0.18750        0.18750       -0.06250
 BRILLOUIN|   173           0.00391       -0.18750        0.18750        0.06250
 BRILLOUIN|   174           0.00391       -0.18750        0.18750        0.18750
 BRILLOUIN|   175           0.00391       -0.18750        0.18750        0.31250
 BRILLOUIN|   176           0.00391       -0.18750        0.18750        0.43750
 BRILLOUIN|   177           0.00391       -0.18750        0.31250       -0.43750
 BRILLOUIN|   178           0.00391       -0.18750        0.31250       -0.31250
 BRILLOUIN|   179           0.00391       -0.18750        0.31250       -0.18750
 BRILLOUIN|   180           0.00391       -0.18750        0.31250       -0.06250
 BRILLOUIN|   181           0.00391       -0.18750        0.31250        0.06250
 BRILLOUIN|   182           0.00391       -0.18750        0.31250        0.18750
 BRILLOUIN|   183           0.00391       -0.18750        0.31250        0.31250
 BRILLOUIN|   184           0.00391       -0.18750        0.31250        0.43750
 BRILLOUIN|   185           0.00391       -0.18750        0.43750       -0.43750
 BRILLOUIN|   186           0.00391       -0.18750        0.43750       -0.31250
 BRILLOUIN|   187           0.00391       -0.18750        0.43750       -0.18750
 BRILLOUIN|   188           0.00391       -0.18750        0.43750       -0.06250
 BRILLOUIN|   189           0.00391       -0.18750        0.43750        0.06250
 BRILLOUIN|   190           0.00391       -0.18750        0.43750        0.18750
 BRILLOUIN|   191           0.00391       -0.18750        0.43750        0.31250
 BRILLOUIN|   192           0.00391       -0.18750        0.43750        0.43750
 BRILLOUIN|   193           0.00391       -0.06250       -0.43750       -0.43750
 BRILLOUIN|   194           0.00391       -0.06250       -0.43750       -0.31250
 BRILLOUIN|   195           0.00391       -0.06250       -0.43750       -0.18750
 BRILLOUIN|   196           0.00391       -0.06250       -0.43750       -0.06250
 BRILLOUIN|   197           0.00391       -0.06250       -0.43750        0.06250
 BRILLOUIN|   198           0.00391       -0.06250       -0.43750        0.18750
 BRILLOUIN|   199           0.00391       -0.06250       -0.43750        0.31250
 BRILLOUIN|   200           0.00391       -0.06250       -0.43750        0.43750
 BRILLOUIN|   201           0.00391       -0.06250       -0.31250       -0.43750
 BRILLOUIN|   202           0.00391       -0.06250       -0.31250       -0.31250
 BRILLOUIN|   203           0.00391       -0.06250       -0.31250       -0.18750
 BRILLOUIN|   204           0.00391       -0.06250       -0.31250       -0.06250
 BRILLOUIN|   205           0.00391       -0.06250       -0.31250        0.06250
 BRILLOUIN|   206           0.00391       -0.06250       -0.31250        0.18750
 BRILLOUIN|   207           0.00391       -0.06250       -0.31250        0.31250
 BRILLOUIN|   208           0.00391       -0.06250       -0.31250        0.43750
 BRILLOUIN|   209           0.00391       -0.06250       -0.18750       -0.43750
 BRILLOUIN|   210           0.00391       -0.06250       -0.18750       -0.31250
 BRILLOUIN|   211           0.00391       -0.06250       -0.18750       -0.18750
 BRILLOUIN|   212           0.00391       -0.06250       -0.18750       -0.06250
 BRILLOUIN|   213           0.00391       -0.06250       -0.18750        0.06250
 BRILLOUIN|   214           0.00391       -0.06250       -0.18750        0.18750
 BRILLOUIN|   215           0.00391       -0.06250       -0.18750        0.31250
 BRILLOUIN|   216           0.00391       -0.06250       -0.18750        0.43750
 BRILLOUIN|   217           0.00391       -0.06250       -0.06250       -0.43750
 BRILLOUIN|   218           0.00391       -0.06250       -0.06250       -0.31250
 BRILLOUIN|   219           0.00391       -0.06250       -0.06250       -0.18750
 BRILLOUIN|   220           0.00391       -0.06250       -0.06250       -0.06250
 BRILLOUIN|   221           0.00391       -0.06250       -0.06250        0.06250
 BRILLOUIN|   222           0.00391       -0.06250       -0.06250        0.18750
 BRILLOUIN|   223           0.00391       -0.06250       -0.06250        0.31250
 BRILLOUIN|   224           0.00391       -0.06250       -0.06250        0.43750
 BRILLOUIN|   225           0.00391       -0.06250        0.06250       -0.43750
 BRILLOUIN|   226           0.00391       -0.06250        0.06250       -0.31250
 BRILLOUIN|   227           0.00391       -0.06250        0.06250       -0.18750
 BRILLOUIN|   228           0.00391       -0.06250        0.06250       -0.06250
 BRILLOUIN|   229           0.00391       -0.06250        0.06250        0.06250
 BRILLOUIN|   230           0.00391       -0.06250        0.06250        0.18750
 BRILLOUIN|   231           0.00391       -0.06250        0.06250        0.31250
 BRILLOUIN|   232           0.00391       -0.06250        0.06250        0.43750
 BRILLOUIN|   233           0.00391       -0.06250        0.18750       -0.43750
 BRILLOUIN|   234           0.00391       -0.06250        0.18750       -0.31250
 BRILLOUIN|   235           0.00391       -0.06250        0.18750       -0.18750
 BRILLOUIN|   236           0.00391       -0.06250        0.18750       -0.06250
 BRILLOUIN|   237           0.00391       -0.06250        0.18750        0.06250
 BRILLOUIN|   238           0.00391       -0.06250        0.18750        0.18750
 BRILLOUIN|   239           0.00391       -0.06250        0.18750        0.31250
 BRILLOUIN|   240           0.00391       -0.06250        0.18750        0.43750
 BRILLOUIN|   241           0.00391       -0.06250        0.31250       -0.43750
 BRILLOUIN|   242           0.00391       -0.06250        0.31250       -0.31250
 BRILLOUIN|   243           0.00391       -0.06250        0.31250       -0.18750
 BRILLOUIN|   244           0.00391       -0.06250        0.31250       -0.06250
 BRILLOUIN|   245           0.00391       -0.06250        0.31250        0.06250
 BRILLOUIN|   246           0.00391       -0.06250        0.31250        0.18750
 BRILLOUIN|   247           0.00391       -0.06250        0.31250        0.31250
 BRILLOUIN|   248           0.00391       -0.06250        0.31250        0.43750
 BRILLOUIN|   249           0.00391       -0.06250        0.43750       -0.43750
 BRILLOUIN|   250           0.00391       -0.06250        0.43750       -0.31250
 BRILLOUIN|   251           0.00391       -0.06250        0.43750       -0.18750
 BRILLOUIN|   252           0.00391       -0.06250        0.43750       -0.06250
 BRILLOUIN|   253           0.00391       -0.06250        0.43750        0.06250
 BRILLOUIN|   254           0.00391       -0.06250        0.43750        0.18750
 BRILLOUIN|   255           0.00391       -0.06250        0.43750        0.31250
 BRILLOUIN|   256           0.00391       -0.06250        0.43750        0.43750
 *******************************************************************************

 *******************************************************************************
 *******************************************************************************
 **                                                                           **
 **     #####                         ##              ##                      **
 **    ##   ##            ##          ##              ##                      **
 **   ##     ##                       ##            ######                    **
 **   ##     ##  ##   ##  ##   #####  ##  ##   ####   ##    #####    #####    **
 **   ##     ##  ##   ##  ##  ##      ## ##   ##      ##   ##   ##  ##   ##   **
 **   ##  ## ##  ##   ##  ##  ##      ####     ###    ##   ######   ######    **
 **    ##  ###   ##   ##  ##  ##      ## ##      ##   ##   ##       ##        **
 **     #######   #####   ##   #####  ##  ##  ####    ##    #####   ##        **
 **           ##                                                    ##        **
 **                                                                           **
 **                                                ... make the atoms dance   **
 **                                                                           **
 **            Copyright (C) by CP2K developers group (2000-2025)             **
 **                      J. Chem. Phys. 152, 194103 (2020)                    **
 **                                                                           **
 *******************************************************************************

 DFT| Spin restricted Kohn-Sham (RKS) calculation                            RKS
 DFT| Multiplicity                                                             1
 DFT| Number of spin states                                                    1
 DFT| Charge                                                                   0
 DFT| Self-interaction correction (SIC)                                       NO
 DFT| Cutoffs: density                                              1.000000E-10
 DFT|          gradient                                             1.000000E-10
 DFT|          tau                                                  1.000000E-10
 DFT|          cutoff_smoothing_range                               0.000000E+00
 DFT| XC density smoothing                                                  NONE
 DFT| XC derivatives                                                          PW

 FUNCTIONAL| PBE:
 FUNCTIONAL| J.P.Perdew, K.Burke, M.Ernzerhof, Phys. Rev. Letter, vol. 77, n 18,
 FUNCTIONAL|  pp. 3865-3868, (1996) {spin unpolarized}                          


 QS| Method:                                                                 GPW
 QS| Density plane wave grid type                        NON-SPHERICAL FULLSPACE
 QS| Number of grid levels:                                                    4
 QS| Density cutoff [a.u.]:                                                500.0
 QS| Multi grid cutoff [a.u.]: 1) grid level                               500.0
 QS|                           2) grid level                               166.7
 QS|                           3) grid level                                55.6
 QS|                           4) grid level                                18.5
 QS| Grid level progression factor:                                          3.0
 QS| Relative density cutoff [a.u.]:                                        50.0
 QS| Interaction thresholds: eps_pgf_orb:                                1.0E-16
 QS|                         eps_filter_matrix:                          0.0E+00
 QS|                         eps_core_charge:                            1.0E-18
 QS|                         eps_rho_gspace:                             1.0E-16
 QS|                         eps_rho_rspace:                             1.0E-16
 QS|                         eps_gvg_rspace:                             1.0E-08
 QS|                         eps_ppl:                                    1.0E-02
 QS|                         eps_ppnl:                                   1.0E-10


 ATOMIC KIND INFORMATION

  1. Atomic kind: Cl                                    Number of atoms:       8

     Orbital Basis Set                             aug-DZVP-MOLOPT-GTH-tier-2-SR

       Number of orbital shell sets:                                           1
       Number of orbital shells:                                               9
       Number of primitive Cartesian functions:                                5
       Number of Cartesian basis functions:                                   34
       Number of spherical basis functions:                                   29
       Norm type:                                                              2

       Normalised Cartesian orbitals:

                        Set   Shell   Orbital            Exponent    Coefficient

                          1       1    2s                0.150015      -0.058490
                                                         0.200000       0.000000
                                                         0.461213      -0.342539
                                                         1.470718       0.018727
                                                         2.379078       0.403013

                          1       2    3s                0.150015       0.311454
                                                         0.200000       0.000000
                                                         0.461213      -0.745503
                                                         1.470718       0.430622
                                                         2.379078       0.556233

                          1       3    4s                0.150015      -0.260053
                                                         0.200000       0.628120
                                                         0.461213      -0.322540
                                                         1.470718       0.415195
                                                         2.379078       0.000000

                          1       4    3px               0.150015      -0.051764
                                                         0.200000       0.000000
                                                         0.461213      -0.325785
                                                         1.470718      -0.580854
                                                         2.379078       0.636314
                          1       4    3py               0.150015      -0.051764
                                                         0.200000       0.000000
                                                         0.461213      -0.325785
                                                         1.470718      -0.580854
                                                         2.379078       0.636314
                          1       4    3pz               0.150015      -0.051764
                                                         0.200000       0.000000
                                                         0.461213      -0.325785
                                                         1.470718      -0.580854
                                                         2.379078       0.636314

                          1       5    4px               0.150015       0.171493
                                                         0.200000       0.000000
                                                         0.461213      -0.295676
                                                         1.470718      -0.610657
                                                         2.379078       0.838046
                          1       5    4py               0.150015       0.171493
                                                         0.200000       0.000000
                                                         0.461213      -0.295676
                                                         1.470718      -0.610657
                                                         2.379078       0.838046
                          1       5    4pz               0.150015       0.171493
                                                         0.200000       0.000000
                                                         0.461213      -0.295676
                                                         1.470718      -0.610657
                                                         2.379078       0.838046

                          1       6    5px               0.150015      -0.030950
                                                         0.200000       0.221861
                                                         0.461213       0.018982
                                                         1.470718       0.182831
                                                         2.379078       0.000000
                          1       6    5py               0.150015      -0.030950
                                                         0.200000       0.221861
                                                         0.461213       0.018982
                                                         1.470718       0.182831
                                                         2.379078       0.000000
                          1       6    5pz               0.150015      -0.030950
                                                         0.200000       0.221861
                                                         0.461213       0.018982
                                                         1.470718       0.182831
                                                         2.379078       0.000000

                          1       7    4dx2              0.150015       0.008371
                                                         0.200000       0.000000
                                                         0.461213       0.295732
                                                         1.470718       0.891640
                                                         2.379078       0.509952
                          1       7    4dxy              0.150015       0.014499
                                                         0.200000       0.000000
                                                         0.461213       0.512222
                                                         1.470718       1.544366
                                                         2.379078       0.883263
                          1       7    4dxz              0.150015       0.014499
                                                         0.200000       0.000000
                                                         0.461213       0.512222
                                                         1.470718       1.544366
                                                         2.379078       0.883263
                          1       7    4dy2              0.150015       0.008371
                                                         0.200000       0.000000
                                                         0.461213       0.295732
                                                         1.470718       0.891640
                                                         2.379078       0.509952
                          1       7    4dyz              0.150015       0.014499
                                                         0.200000       0.000000
                                                         0.461213       0.512222
                                                         1.470718       1.544366
                                                         2.379078       0.883263
                          1       7    4dz2              0.150015       0.008371
                                                         0.200000       0.000000
                                                         0.461213       0.295732
                                                         1.470718       0.891640
                                                         2.379078       0.509952

                          1       8    5dx2              0.150015       0.096514
                                                         0.200000      -0.064688
                                                         0.461213      -0.001363
                                                         1.470718      -0.052649
                                                         2.379078       0.000000
                          1       8    5dxy              0.150015       0.167167
                                                         0.200000      -0.112043
                                                         0.461213      -0.002361
                                                         1.470718      -0.091190
                                                         2.379078       0.000000
                          1       8    5dxz              0.150015       0.167167
                                                         0.200000      -0.112043
                                                         0.461213      -0.002361
                                                         1.470718      -0.091190
                                                         2.379078       0.000000
                          1       8    5dy2              0.150015       0.096514
                                                         0.200000      -0.064688
                                                         0.461213      -0.001363
                                                         1.470718      -0.052649
                                                         2.379078       0.000000
                          1       8    5dyz              0.150015       0.167167
                                                         0.200000      -0.112043
                                                         0.461213      -0.002361
                                                         1.470718      -0.091190
                                                         2.379078       0.000000
                          1       8    5dz2              0.150015       0.096514
                                                         0.200000      -0.064688
                                                         0.461213      -0.001363
                                                         1.470718      -0.052649
                                                         2.379078       0.000000

                          1       9    5fx3              0.150015       0.020974
                                                         0.200000      -0.004484
                                                         0.461213       0.030555
                                                         1.470718       0.487898
                                                         2.379078       0.000000
                          1       9    5fx2y             0.150015       0.046899
                                                         0.200000      -0.010027
                                                         0.461213       0.068323
                                                         1.470718       1.090972
                                                         2.379078       0.000000
                          1       9    5fx2z             0.150015       0.046899
                                                         0.200000      -0.010027
                                                         0.461213       0.068323
                                                         1.470718       1.090972
                                                         2.379078       0.000000
                          1       9    5fxy2             0.150015       0.046899
                                                         0.200000      -0.010027
                                                         0.461213       0.068323
                                                         1.470718       1.090972
                                                         2.379078       0.000000
                          1       9    5fxyz             0.150015       0.081231
                                                         0.200000      -0.017368
                                                         0.461213       0.118338
                                                         1.470718       1.889619
                                                         2.379078       0.000000
                          1       9    5fxz2             0.150015       0.046899
                                                         0.200000      -0.010027
                                                         0.461213       0.068323
                                                         1.470718       1.090972
                                                         2.379078       0.000000
                          1       9    5fy3              0.150015       0.020974
                                                         0.200000      -0.004484
                                                         0.461213       0.030555
                                                         1.470718       0.487898
                                                         2.379078       0.000000
                          1       9    5fy2z             0.150015       0.046899
                                                         0.200000      -0.010027
                                                         0.461213       0.068323
                                                         1.470718       1.090972
                                                         2.379078       0.000000
                          1       9    5fyz2             0.150015       0.046899
                                                         0.200000      -0.010027
                                                         0.461213       0.068323
                                                         1.470718       1.090972
                                                         2.379078       0.000000
                          1       9    5fz3              0.150015       0.020974
                                                         0.200000      -0.004484
                                                         0.461213       0.030555
                                                         1.470718       0.487898
                                                         2.379078       0.000000

       Atomic covalent radius [Angstrom]:                                  0.990

       Atomic van der Waals radius [Angstrom]:                             1.750

     GTH Potential information for                                       GTH-PBE

       Description:                       Goedecker-Teter-Hutter pseudopotential
                                           Goedecker et al., PRB 54, 1703 (1996)
                                          Hartwigsen et al., PRB 58, 3641 (1998)
                                                      Krack, TCA 114, 145 (2005)

       Gaussian exponent of the core charge distribution:               2.974420
       Electronic configuration (s p d ...):                               2   5

       Parameters of the local part of the GTH pseudopotential:

                          rloc        C1          C2          C3          C4
                        0.410000   -6.392082

       Parameters of the non-local part of the GTH (SOC) pseudopotential:

                   l      r(l)      h(i,j,l)
                                    k(i,j,l)
                   0    0.339539   15.218990   -4.934523
                                   -4.934523    6.370442
                   1    0.378474    4.338775    0.000000
                                    0.000000    0.000000
                                    0.045289   -0.032578
                                   -0.032578    0.038547


 MOLECULE KIND INFORMATION


 All atoms are their own molecule, skipping detailed information


 TOTAL NUMBERS AND MAXIMUM NUMBERS

  Total number of            - Atomic kinds:                                   1
                             - Atoms:                                          8
                             - Shell sets:                                     8
                             - Shells:                                        72
                             - Primitive Cartesian functions:                 40
                             - Cartesian basis functions:                    272
                             - Spherical basis functions:                    232

  Maximum angular momentum of- Orbital basis functions:                        3
                             - Local part of the GTH pseudopotential:          0
                             - Non-local part of the GTH pseudopotential:      3


 MODULE QUICKSTEP: ATOMIC COORDINATES IN ANGSTROM

   Atom Kind Element         X             Y             Z       Z(eff)     Mass
      1    1 Cl   17      0.000000      1.778126      8.111064   7.0000  35.4530
      2    1 Cl   17      0.000000      0.396579      3.597294   7.0000  35.4530
      3    1 Cl   17      0.000000      3.952831      5.430246   7.0000  35.4530
      4    1 Cl   17      0.000000      2.571284      0.916476   7.0000  35.4530
      5    1 Cl   17      3.889375      3.952831      8.111064   7.0000  35.4530
      6    1 Cl   17      3.889375      2.571284      3.597294   7.0000  35.4530
      7    1 Cl   17      3.889375      1.778126      5.430246   7.0000  35.4530
      8    1 Cl   17      3.889375      0.396579      0.916476   7.0000  35.4530



 SCF PARAMETERS         Density guess:                                    ATOMIC
                        --------------------------------------------------------
                        max_scf:                                             500
                        max_scf_history:                                       0
                        max_diis:                                              4
                        --------------------------------------------------------
                        eps_scf:                                        1.00E-09
                        eps_scf_history:                                0.00E+00
                        eps_diis:                                       1.00E-01
                        eps_eigval:                                     1.00E-05
                        --------------------------------------------------------
                        level_shift [a.u.]:                             0.000000
                        added MOs                                       204    0
                        --------------------------------------------------------
                        Mixing method:                            BROYDEN_MIXING
                                                charge density mixing in g-space
                        --------------------------------------------------------
                        No outer SCF

 PW_GRID| Information for grid number                                          1
 PW_GRID| Grid distributed over                                     8 processors
 PW_GRID| Real space group dimensions                                     8    1
 PW_GRID| the grid is blocked:                                                NO
 PW_GRID| Cutoff [a.u.]                                                    500.0
 PW_GRID| spherical cutoff:                                                   NO
 PW_GRID|   Bounds   1            -75      74                Points:         150
 PW_GRID|   Bounds   2            -45      44                Points:          90
 PW_GRID|   Bounds   3            -90      89                Points:         180
 PW_GRID| Volume element (a.u.^3)  0.8482E-03     Volume (a.u.^3)      2061.1338
 PW_GRID| Grid span                                                    FULLSPACE
 PW_GRID|   Distribution                         Average         Max         Min
 PW_GRID|   G-Vectors                           303750.0      303750      303750
 PW_GRID|   G-Rays                                2025.0        2025        2025
 PW_GRID|   Real Space Points                   303750.0      307800      291600

 PW_GRID| Information for grid number                                          2
 PW_GRID| Number of the reference grid                                         1
 PW_GRID| Grid distributed over                                     8 processors
 PW_GRID| Real space group dimensions                                     8    1
 PW_GRID| the grid is blocked:                                                NO
 PW_GRID| Cutoff [a.u.]                                                    166.7
 PW_GRID| spherical cutoff:                                                   NO
 PW_GRID|   Bounds   1            -45      44                Points:          90
 PW_GRID|   Bounds   2            -24      23                Points:          48
 PW_GRID|   Bounds   3            -50      49                Points:         100
 PW_GRID| Volume element (a.u.^3)  0.4771E-02     Volume (a.u.^3)      2061.1338
 PW_GRID| Grid span                                                    FULLSPACE
 PW_GRID|   Distribution                         Average         Max         Min
 PW_GRID|   G-Vectors                            54000.0       54090       53910
 PW_GRID|   G-Rays                                 600.0         601         599
 PW_GRID|   Real Space Points                    54000.0       57600       52800

 PW_GRID| Information for grid number                                          3
 PW_GRID| Number of the reference grid                                         1
 PW_GRID| Grid distributed over                                     8 processors
 PW_GRID| Real space group dimensions                                     8    1
 PW_GRID| the grid is blocked:                                                NO
 PW_GRID| Cutoff [a.u.]                                                     55.6
 PW_GRID| spherical cutoff:                                                   NO
 PW_GRID|   Bounds   1            -27      26                Points:          54
 PW_GRID|   Bounds   2            -13      13                Points:          27
 PW_GRID|   Bounds   3            -30      29                Points:          60
 PW_GRID| Volume element (a.u.^3)  0.2356E-01     Volume (a.u.^3)      2061.1338
 PW_GRID| Grid span                                                    FULLSPACE
 PW_GRID|   Distribution                         Average         Max         Min
 PW_GRID|   G-Vectors                            10935.0       11070       10854
 PW_GRID|   G-Rays                                 202.5         205         201
 PW_GRID|   Real Space Points                    10935.0       11340        9720

 PW_GRID| Information for grid number                                          4
 PW_GRID| Number of the reference grid                                         1
 PW_GRID| Grid distributed over                                     8 processors
 PW_GRID| Real space group dimensions                                     8    1
 PW_GRID| the grid is blocked:                                                NO
 PW_GRID| Cutoff [a.u.]                                                     18.5
 PW_GRID| spherical cutoff:                                                   NO
 PW_GRID|   Bounds   1            -15      14                Points:          30
 PW_GRID|   Bounds   2             -7       7                Points:          15
 PW_GRID|   Bounds   3            -18      17                Points:          36
 PW_GRID| Volume element (a.u.^3)  0.1272         Volume (a.u.^3)      2061.1338
 PW_GRID| Grid span                                                    FULLSPACE
 PW_GRID|   Distribution                         Average         Max         Min
 PW_GRID|   G-Vectors                             2025.0        2070        1980
 PW_GRID|   G-Rays                                  67.5          69          66
 PW_GRID|   Real Space Points                     2025.0        2160        1620

 POISSON| Solver                                                        PERIODIC
 POISSON| Periodicity                                                        XYZ

 RS_GRID| Information for grid number                                          1
 RS_GRID|   Bounds   1            -75      74                Points:         150
 RS_GRID|   Bounds   2            -45      44                Points:          90
 RS_GRID|   Bounds   3            -90      89                Points:         180
 RS_GRID| Real space fully replicated
 RS_GRID| Group size                                                           1

 RS_GRID| Information for grid number                                          2
 RS_GRID|   Bounds   1            -45      44                Points:          90
 RS_GRID|   Bounds   2            -24      23                Points:          48
 RS_GRID|   Bounds   3            -50      49                Points:         100
 RS_GRID| Real space fully replicated
 RS_GRID| Group size                                                           1

 RS_GRID| Information for grid number                                          3
 RS_GRID|   Bounds   1            -27      26                Points:          54
 RS_GRID|   Bounds   2            -13      13                Points:          27
 RS_GRID|   Bounds   3            -30      29                Points:          60
 RS_GRID| Real space fully replicated
 RS_GRID| Group size                                                           1

 RS_GRID| Information for grid number                                          4
 RS_GRID|   Bounds   1            -15      14                Points:          30
 RS_GRID|   Bounds   2             -7       7                Points:          15
 RS_GRID|   Bounds   3            -18      17                Points:          36
 RS_GRID| Real space fully replicated
 RS_GRID| Group size                                                           1

 Number of electrons:                                                         56
 Number of occupied orbitals:                                                 28
 Number of molecular orbitals:                                               232

 Number of orbital functions:                                                232
 Number of independent orbital functions:                                    232

 Extrapolation method: initial_guess

 Atomic guess: The first density matrix is obtained in terms of atomic orbitals
               and electronic configurations assigned to each atomic kind

 Guess for atomic kind: Cl

 Electronic structure
    Total number of core electrons                                         10.00
    Total number of valence electrons                                       7.00
    Total number of electrons                                              17.00
    Multiplicity                                                   not specified
    S   [  2.00  2.00] 2.00
    P   [  6.00] 5.00


 *******************************************************************************
                  Iteration          Convergence                     Energy [au]
 *******************************************************************************
                          1        0.313945E-01                 -14.773633700919
                          2        0.195488E-01                 -14.773805856731
                          3        0.389081E-02                 -14.773877845256
                          4        0.777201E-06                 -14.773880769947

 Energy components [Hartree]           Total Energy ::          -14.773880769947
                                        Band Energy ::           -2.957510283718
                                     Kinetic Energy ::            5.561969155978
                                   Potential Energy ::          -20.335849925925
                                      Virial (-V/T) ::            3.656232056603
                                        Core Energy ::          -24.688743873917
                                          XC Energy ::           -2.746658225868
                                     Coulomb Energy ::           12.661521329838
                       Total Pseudopotential Energy ::          -30.309360399165
                       Local Pseudopotential Energy ::          -33.429756254926
                    Nonlocal Pseudopotential Energy ::            3.120395855760
                                        Confinement ::            0.586473692704

 Orbital energies  State     L     Occupation   Energy[a.u.]          Energy[eV]

                       1     0          2.000      -0.738874          -20.105793

                       1     1          5.000      -0.295952           -8.053272


 Total Electron Density at R=0:                                         0.000326
 Re-scaling the density matrix to get the right number of electrons
                  # Electrons              Trace(P)               Scaling factor
                           56                56.000                        1.000


 SCF WAVEFUNCTION OPTIMIZATION

  Step     Update method      Time    Convergence         Total energy    Change
  ------------------------------------------------------------------------------
     1 NoMix/Diag. 0.50E-01    3.9     0.79180935      -120.0688532462 -1.20E+02
     2 Broy./Diag. 0.50E-01    3.8     0.00338317      -119.8524614224  2.16E-01
     3 Broy./Diag. 0.50E-01    3.8     0.08222508      -119.8542623859 -1.80E-03
     4 Broy./Diag. 0.50E-01    3.8     0.00090865      -119.9456156596 -9.14E-02
     5 Broy./Diag. 0.50E-01    3.8     0.01121216      -119.8621299458  8.35E-02
     6 Broy./Diag. 0.50E-01    3.8     0.00020544      -119.8062720104  5.59E-02
     7 Broy./Diag. 0.50E-01    3.8     0.00282786      -119.7945334238  1.17E-02
     8 Broy./Diag. 0.50E-01    3.8     0.00020730      -119.7650045699  2.95E-02
     9 Broy./Diag. 0.50E-01    3.8     0.00446819      -119.7697331945 -4.73E-03
    10 Broy./Diag. 0.50E-01    3.8     0.00013123      -119.7631245019  6.61E-03
    11 Broy./Diag. 0.50E-01    3.9     0.00090602      -119.7615547372  1.57E-03
    12 Broy./Diag. 0.50E-01    3.8     0.00007307      -119.7585274736  3.03E-03
    13 Broy./Diag. 0.50E-01    3.8     0.00027370      -119.7579861621  5.41E-04
    14 Broy./Diag. 0.50E-01    3.8     0.00015013      -119.7580718213 -8.57E-05
    15 Broy./Diag. 0.50E-01    3.8     0.00001106      -119.7583208777 -2.49E-04
    16 Broy./Diag. 0.50E-01    3.9     0.00007248      -119.7584773440 -1.56E-04
    17 Broy./Diag. 0.50E-01    3.8     0.00000763      -119.7585907970 -1.13E-04
    18 Broy./Diag. 0.50E-01    3.8     0.00001067      -119.7587093571 -1.19E-04
    19 Broy./Diag. 0.50E-01    3.8     0.00005074      -119.7587519428 -4.26E-05
    20 Broy./Diag. 0.50E-01    3.8     0.00001654      -119.7587656090 -1.37E-05
    21 Broy./Diag. 0.50E-01    3.9     0.00000384      -119.7587804062 -1.48E-05
    22 Broy./Diag. 0.50E-01    3.9     0.00000802      -119.7588247120 -4.43E-05
    23 Broy./Diag. 0.50E-01    3.8     0.00000218      -119.7588932580 -6.85E-05
    24 Broy./Diag. 0.50E-01    3.8     0.00000848      -119.7589330350 -3.98E-05
    25 Broy./Diag. 0.50E-01    3.8     0.00000038      -119.7589742499 -4.12E-05
    26 Broy./Diag. 0.50E-01    3.8     0.00000231      -119.7589703911  3.86E-06
    27 Broy./Diag. 0.50E-01    3.8     0.00000025      -119.7589655358  4.86E-06
    28 Broy./Diag. 0.50E-01    3.8     0.00000242      -119.7589588016  6.73E-06
    29 Broy./Diag. 0.50E-01    3.8     0.00000009      -119.7589592374 -4.36E-07
    30 Broy./Diag. 0.50E-01    3.8     0.00000044      -119.7589542063  5.03E-06
    31 Broy./Diag. 0.50E-01    3.8     0.00000013      -119.7589509808  3.23E-06
    32 Broy./Diag. 0.50E-01    3.8     0.00000069      -119.7589512885 -3.08E-07
    33 Broy./Diag. 0.50E-01    3.8     0.00000005      -119.7589521281 -8.40E-07
    34 Broy./Diag. 0.50E-01    3.8     0.00000032      -119.7589516550  4.73E-07
    35 Broy./Diag. 0.50E-01    3.8     0.00000003      -119.7589498756  1.78E-06
    36 Broy./Diag. 0.50E-01    3.8     0.00000010      -119.7589490770  7.99E-07
    37 Broy./Diag. 0.50E-01    3.9     0.00000002      -119.7589478004  1.28E-06
    38 Broy./Diag. 0.50E-01    3.8     0.00000005      -119.7589477774  2.29E-08
    39 Broy./Diag. 0.50E-01    3.8     0.00000002      -119.7589477591  1.84E-08
    40 Broy./Diag. 0.50E-01    3.8     0.00000004      -119.7589478056 -4.65E-08
    41 Broy./Diag. 0.50E-01    3.8     4.6479E-09      -119.7589477922  1.34E-08
    42 Broy./Diag. 0.50E-01    3.8     8.9986E-09      -119.7589478388 -4.66E-08
    43 Broy./Diag. 0.50E-01    3.8     5.3972E-09      -119.7589478465 -7.76E-09
    44 Broy./Diag. 0.50E-01    3.9     0.00000001      -119.7589477703  7.62E-08
    45 Broy./Diag. 0.50E-01    3.8     7.4549E-10      -119.7589477277  4.26E-08

  *** SCF run converged in    45 steps ***


  Electronic density on regular grids:        -56.0000000000       -0.0000000000
  Core density on regular grids:               56.0000000000        0.0000000000
  Total charge density on r-space grids:       -0.0000000000
  Total charge density g-space grids:          -0.0000000000

  Overlap energy of the core charge distribution:               0.00000000392585
  Self energy of the core charge distribution:               -269.71014237892746
  Core Hamiltonian energy:                                     61.53712239793391
  Hartree energy:                                             111.51782995653502
  Exchange-correlation energy:                                -23.10375770714947

  Total energy:                                              -119.75894772768217

 !-----------------------------------------------------------------------------!
                     Mulliken Population Analysis

 #  Atom  Element  Kind  Atomic population                           Net charge
       1     Cl       1          7.000000                             -0.000000
       2     Cl       1          7.000000                              0.000000
       3     Cl       1          7.000000                              0.000000
       4     Cl       1          7.000000                             -0.000000
       5     Cl       1          7.000000                              0.000000
       6     Cl       1          7.000000                             -0.000000
       7     Cl       1          7.000000                             -0.000000
       8     Cl       1          7.000000                              0.000000
 # Total charge                             56.000000                 -0.000000

 !-----------------------------------------------------------------------------!

 !-----------------------------------------------------------------------------!
                           Hirshfeld Charges

  #Atom  Element  Kind  Ref Charge     Population                    Net charge
      1       Cl     1       7.000          7.000                        -0.000
      2       Cl     1       7.000          7.000                        -0.000
      3       Cl     1       7.000          7.000                        -0.000
      4       Cl     1       7.000          7.000                        -0.000
      5       Cl     1       7.000          7.000                         0.000
      6       Cl     1       7.000          7.000                         0.000
      7       Cl     1       7.000          7.000                         0.000
      8       Cl     1       7.000          7.000                         0.000

  Total Charge                                                           -0.000
 !-----------------------------------------------------------------------------!

 KPOINTS| Band Structure Calculation
 KPOINTS| Number of k-point sets                                               1
 KPOINTS| Number of added MOs/bands                                           -1
 KPOINTS| Number of k-points in set    1                                     148
 KPOINTS| In units of b-vector [2pi/Bohr]
 KPOINTS| Special point     1 not specifi     0.000000     0.000000     0.000000
 KPOINTS| Special point     2 not specifi     0.500000     0.500000     0.000000
 KPOINTS| Special point     3 not specifi     0.328159     0.671841     0.000000
 KPOINTS| Special point     4 not specifi     0.000000     0.000000     0.000000
 KPOINTS| Time for k-point line                                            2.271

 ENERGY| Total FORCE_EVAL ( QS ) energy [hartree]           -119.758947727682170

 -------------------------------------------------------------------------------
 -                                                                             -
 -                                DBCSR STATISTICS                             -
 -                                                                             -
 -------------------------------------------------------------------------------
 COUNTER                                    TOTAL       BLAS       SMM       ACC
 flops inhomo. stacks                           0       0.0%      0.0%      0.0%
 flops total                         0.000000E+00       0.0%      0.0%      0.0%
 flops max/rank                      0.000000E+00       0.0%      0.0%      0.0%
 matmuls inhomo. stacks                         0       0.0%      0.0%      0.0%
 matmuls total                                  0       0.0%      0.0%      0.0%
 number of processed stacks                     0       0.0%      0.0%      0.0%
 average stack size                                     0.0       0.0       0.0
 marketing flops                     0.000000E+00
 -------------------------------------------------------------------------------
 -                                                                             -
 -                      DBCSR MESSAGE PASSING PERFORMANCE                      -
 -                                                                             -
 -------------------------------------------------------------------------------
 ROUTINE             CALLS      AVE VOLUME [Bytes]
 MP_Bcast                1                     12.
 MP_Allreduce           19                     21.
 MP_Alltoall        960500                  27495.
 -------------------------------------------------------------------------------

 -------------------------------------------------------------------------------
 -                                                                             -
 -                                DBM STATISTICS                               -
 -                                                                             -
 -------------------------------------------------------------------------------
    M  x    N  x    K                                          COUNT     PERCENT
 -------------------------------------------------------------------------------

 -------------------------------------------------------------------------------
 -                                                                             -
 -                                GRID STATISTICS                              -
 -                                                                             -
 -------------------------------------------------------------------------------
 LP    KERNEL             BACKEND                              COUNT     PERCENT
 6     collocate ortho    CPU                                 478952      50.55%
 6     integrate ortho    CPU                                 468540      49.45%
 0     collocate general  CPU                                     16       0.00%
 0     integrate general  CPU                                      8       0.00%
 -------------------------------------------------------------------------------

 MEMORY| Estimated peak process memory [MiB]                                 876

 -------------------------------------------------------------------------------
 ----                             MULTIGRID INFO                            ----
 -------------------------------------------------------------------------------
 count for grid        1:           7960          cutoff [a.u.]          500.00
 count for grid        2:          40020          cutoff [a.u.]          166.67
 count for grid        3:          22800          cutoff [a.u.]           55.56
 count for grid        4:          15580          cutoff [a.u.]           18.52
 total gridlevel count  :          86360

 -------------------------------------------------------------------------------
 -                                                                             -
 -                         MESSAGE PASSING PERFORMANCE                         -
 -                                                                             -
 -------------------------------------------------------------------------------

 ROUTINE             CALLS      AVE VOLUME [Bytes]
 MP_Group                6
 MP_Bcast           418478                    883.
 MP_Allreduce        23011                    974.
 MP_Sync                 4
 MP_Alltoall           815               13491381.
 MP_SendRecv          1302                 776129.
 MP_ISendRecv         1267                 767218.
 MP_Wait            288903
 MP_comm_split           4
 MP_ISend           305804                  12281.
 MP_IRecv           488576                   7696.
 -------------------------------------------------------------------------------


 -------------------------------------------------------------------------------
 -                                                                             -
 -                           R E F E R E N C E S                               -
 -                                                                             -
 -------------------------------------------------------------------------------
 
 CP2K version 2025.1 (Development Version), the CP2K developers group (2025).
 CP2K is freely available from https://www.cp2k.org/ .
 
 T. D. Kuehne, M. Iannuzzi, M. Del Ben, V. V. Rybkin, P. Seewald, F. Stein, T. 
 Laino, R. Z. Khaliullin, O. Schuett, F. Schiffmann, D. Golze, J. Wilhelm, S. 
 Chulkov, M. H. Bani-Hashemian, V. Weber, U. Borstnik, M. Taillefumier, A. S. 
 Jakobovits, A. Lazzaro, H. Pabst, T. Mueller, R. Schade, M. Guidon, S. 
 Andermatt, N. Holmberg, G. K. Schenter, A. Hehn, A. Bussy, F. Belleflamme, G. 
 Tabacchi, A. Gloess, M. Lass, I. Bethune, C. J. Mundy, C. Plessl, M. Watkins, 
 J. VandeVondele, M. Krack, J. Hutter.
 J. Chem. Phys. 152, 194103 (2020).
 CP2K: An electronic structure and molecular dynamics software package - 
 Quickstep: Efficient and accurate electronic structure calculations.
 https://doi.org/10.1063/5.0007045

 O. Schuett, P. Messmer, J. Hutter, J. VandeVondele.
 Electronic Structure Calculations on Graphics Processing Units, 173-190 (2016).
 GPU-Accelerated Sparse Matrix-Matrix Multiplication for Linear Scaling Density 
 Functional Theory.
 https://doi.org/10.1002/9781118670712.ch8

 J. Hutter, M. Iannuzzi, F. Schiffmann, J. VandeVondele.
 WIREs Comput Mol Sci. 4, 15-25 (2014).
 CP2K: atomistic simulations of condensed matter systems.
 https://doi.org/10.1002/wcms.1159

 U. Borstnik, J. VandeVondele, V. Weber, J. Hutter.
 Parallel Comput. 40, 47-58 (2014).
 Sparse matrix multiplication: The distributed block-compressed sparse row 
 library.
 https://doi.org/10.1016/j.parco.2014.03.012

 J. VandeVondele, J. Hutter.
 J. Chem. Phys. 127, 114105 (2007).
 Gaussian basis sets for accurate calculations on molecular systems in gas and 
 condensed phases.
 https://doi.org/10.1063/1.2770708

 J. VandeVondele, M. Krack, F. Mohamed, M. Parrinello, T. Chassaing, J. Hutter.
 Comput. Phys. Commun. 167, 103-128 (2005).
 QUICKSTEP: Fast and accurate density functional calculations using a mixed 
 Gaussian and plane waves approach.
 https://doi.org/10.1016/j.cpc.2004.12.014

 M. Krack.
 Theor. Chem. Acc. 114, 145-152 (2005).
 Pseudopotentials for H to Kr optimized for gradient-corrected 
 exchange-correlation functionals.
 https://doi.org/10.1007/s00214-005-0655-y

 M. Frigo, S. G. Johnson.
 Proc. IEEE 93, 216-231 (2005).
 The design and implementation of FFTW3.
 https://doi.org/10.1109/JPROC.2004.840301

 C. Hartwigsen, S. Goedecker, J. Hutter.
 Phys. Rev. B 58, 3641-3662 (1998).
 Relativistic separable dual-space Gaussian pseudopotentials from H to Rn.
 https://doi.org/10.1103/PhysRevB.58.3641

 G. Lippert, J. Hutter, M. Parrinello.
 Mol. Phys. 92, 477-487 (1997).
 A hybrid Gaussian and plane wave density functional scheme.
 https://doi.org/10.1080/002689797170220

 S. Goedecker, M. Teter, J. Hutter.
 Phys. Rev. B 54, 1703-1710 (1996).
 Separable dual-space Gaussian pseudopotentials.
 https://doi.org/10.1103/PhysRevB.54.1703

 J. P. Perdew, K. Burke, M. Ernzerhof.
 Phys. Rev. Lett. 77, 3865-3868 (1996).
 Generalized gradient approximation made simple.
 https://doi.org/10.1103/PhysRevLett.77.3865


 -------------------------------------------------------------------------------
 -                                                                             -
 -                                T I M I N G                                  -
 -                                                                             -
 -------------------------------------------------------------------------------
 SUBROUTINE                       CALLS  ASD         SELF TIME        TOTAL TIME
                                MAXIMUM       AVERAGE  MAXIMUM  AVERAGE  MAXIMUM
 CP2K                                 1  1.0    0.009    0.013  176.675  176.675
 qs_energies                          1  2.0    0.017    0.120  176.330  176.390
 scf_env_do_scf                       1  3.0    0.000    0.000  173.753  173.753
 scf_env_do_scf_inner_loop           45  4.0    0.008    0.010  173.752  173.753
 do_general_diag_kp                  46  5.9    0.301    0.316  161.696  162.306
 qs_scf_new_mos_kp                   45  5.0    0.000    0.000  159.587  160.230
 kpoint_density_transform            45  7.0    0.098    0.106   38.345   38.398
 cp_cfm_geeig                      1477  6.9    0.019    0.022   34.951   35.564
 dbcsr_complete_redistribute      70195  8.3    4.564    4.740   29.036   33.414
 copy_dbcsr_to_fm                 47155  7.0    0.547    0.580   29.149   29.501
 rskp_transform                   23336  7.0   24.794   28.866   24.794   28.866
 dbcsr_desymmetrize_deep          93827  7.5    2.491    2.600   18.923   27.541
 cp_cfm_heevd                      1477  7.9    0.003    0.003   24.966   25.434
 cp_cfm_heevd_base                 1477  8.9   24.963   25.431   24.963   25.431
 cp_fm_start_copy_general         69712  7.3    4.685    5.115   24.848   24.910
 mp_alltoall_i22                 164022  8.8    9.183   21.794    9.183   21.794
 mp_allgather_i                  139424  8.3   17.286   17.522   17.286   17.522
 copy_fm_to_dbcsr                 23040  8.0    0.149    0.154   10.883   14.866
 transform_dmat                   11520  8.0   12.078   14.027   12.078   14.027
 mp_alltoall_d11v                492066  9.4   10.818   11.807   10.818   11.807
 hybrid_alltoall_any              93827  8.5    0.412    0.455    6.242    6.984
 dbcsr_finalize                  167142  8.8    0.864    0.933    6.603    6.977
 cp_cfm_triangular_multiply        4431  7.9    6.806    6.909    6.806    6.909
 qs_ks_update_qs_env                 45  5.0    0.000    0.000    6.532    6.822
 rebuild_ks_matrix                   45  6.0    0.000    0.000    6.215    6.504
 qs_ks_build_kohn_sham_matrix        45  7.0    0.017    0.017    6.214    6.504
 kpoint_density_matrices             45  7.0    0.086    0.089    4.803    4.846
 cp_fm_finish_copy_general        28948  7.8    4.694    4.759    4.756    4.819
 parallel_gemm_fm                  5760  8.0    0.007    0.008    4.566    4.603
 parallel_gemm_fm_gemm             5760  9.0    0.007    0.009    4.559    4.596
 cp_fm_gemm                        5760 10.0    4.551    4.587    4.551    4.587
 qs_rho_update_rho_low               46  5.0    0.000    0.000    4.179    4.181
 calculate_rho_elec                  46  6.0    0.105    0.108    4.179    4.180
 mp_alltoall_i11v                304412  9.0    3.542    4.108    3.542    4.108
 dbcsr_merge_all                  70195 10.3    1.836    2.075    3.812    4.103
 mp_cart_sub                      94312  9.0    4.006    4.027    4.006    4.027
 fft_wrap_pw1pw2                    815 10.0    0.012    0.013    3.529    3.547
 fft_wrap_pw1pw2_500                542 11.3    0.270    0.277    3.324    3.348
 sum_up_and_integrate                45  8.0    0.001    0.001    2.968    3.261
 integrate_v_rspace                  45  9.0    0.021    0.033    2.962    3.255
 fft3d_ps                           815 12.0    1.318    1.345    2.746    2.770
 mp_cart_create                   47162  9.0    2.578    2.654    2.578    2.654
 qs_vxc_create                       45  8.0    0.001    0.001    2.637    2.640
 xc_vxc_pw_create                    45  9.0    0.104    0.106    2.636    2.640
 grid_collocate_task_list            46  7.0    2.255    2.528    2.255    2.528
 gspace_mixing                       44  5.0    0.095    0.096    2.459    2.459
 density_rs2pw                       46  7.0    0.002    0.002    1.809    2.321
 grid_integrate_task_list            45 10.0    1.838    2.118    1.838    2.118
 broyden_mixing                      44  6.0    2.016    2.040    2.059    2.069
 mp_bcast_iv                     278872  8.3    1.698    1.926    1.698    1.926
 xc_pw_derive                       270 11.0    0.001    0.001    1.695    1.722
 dbcsr_work_create               164022  8.8    1.024    1.068    1.596    1.654
 transfer_rs2pw                     186  8.0    0.002    0.003    1.124    1.645
 dbcsr_create_new                250153  8.4    1.247    1.313    1.502    1.590
 cp_cfm_cholesky_decompose         1477  7.9    1.490    1.515    1.490    1.515
 cp_cfm_triangular_invert          1477  7.9    1.488    1.501    1.488    1.501
 transfer_rs2pw_500                  48  8.9    0.348    0.382    0.923    1.462
 xc_rho_set_and_dset_create          45 10.0    0.059    0.063    1.424    1.441
 copy_dbcsr_to_fm_bc              47155  8.0    0.824    0.864    1.380    1.414
 kpoint_set_mo_occupation            45  7.0    0.185    0.187    0.950    1.382
 copy_fm_to_dbcsr_bc              23040  9.0    0.398    0.418    1.268    1.324
 mp_alltoall_z22v                   815 14.0    1.235    1.315    1.235    1.315
 dbcsr_work_destroy_all          164022  9.8    0.776    0.783    1.294    1.312
 mp_sum_dm3                          45  8.0    0.765    1.201    0.765    1.201
 tree_to_linear_d                 70195 11.3    1.156    1.189    1.156    1.189
 mp_sendrecv_dv                    1302 10.0    0.698    1.185    0.698    1.185
 dbcsr_iterator_start            466540  9.1    0.953    0.965    1.119    1.139
 xc_pw_divergence                    45 10.0    0.001    0.001    1.094    1.114
 potential_pw2rs                     45 10.0    0.005    0.006    1.103    1.106
 dbcsr_data_release             2411056 10.2    1.051    1.079    1.051    1.079
 dbcsr_copy                       37691  8.0    0.123    0.128    0.971    1.074
 dbcsr_data_new                 1756862  9.8    1.009    1.051    1.009    1.051
 dbcsr_copy_into_existing         23201 10.0    0.685    0.782    0.823    0.920
 x_to_yz                            450 13.2    0.114    0.123    0.826    0.852
 dbcsr_destroy                   235663  8.3    0.411    0.419    0.809    0.851
 write_kpoints_restart               45  5.0    0.003    0.006    0.817    0.819
 mp_waitall_1                    288903  8.3    0.507    0.802    0.507    0.802
 transfer_pw2rs                     181 11.0    0.001    0.002    0.764    0.765
 dbcsr_iterator_stop             466540  9.1    0.568    0.571    0.673    0.680
 yz_to_x                            365 12.8    0.070    0.081    0.594    0.645
 transfer_pw2rs_500                  46 11.9    0.302    0.306    0.573    0.588
 mp_bcast_im                     139424  8.3    0.516    0.582    0.516    0.582
 quick_finalize                   93827  9.5    0.321    0.327    0.558    0.573
 dbcsr_data_copy_aa2              70195 11.3    0.495    0.556    0.495    0.556
 mp_isend_dv                      70304  8.3    0.459    0.525    0.459    0.525
 cp_cfm_scale_and_add_fm           5908  6.9    0.491    0.504    0.491    0.504
 cp_fm_write_unformatted            483  6.0    0.161    0.455    0.205    0.503
 xc_functional_eval                  45 11.0    0.000    0.001    0.462    0.477
 pbe_lda_eval                        45 12.0    0.461    0.476    0.461    0.476
 mp_comm_free                    141508  9.0    0.424    0.468    0.424    0.468
 dbcsr_set                       132504  8.2    0.144    0.151    0.342    0.366
 evaluate_core_matrix_traces         45  6.0    0.000    0.000    0.317    0.318
 calculate_ptrace_kp                 90  7.0    0.011    0.012    0.317    0.318
 dbcsr_dot                        14491  8.0    0.168    0.182    0.307    0.311
 pw_scatter_p                       450 12.2    0.296    0.308    0.296    0.308
 dbcsr_reserve_all_blocks         23040 10.0    0.041    0.044    0.283    0.298
 dbcsr_sort_indices              188461 10.9    0.275    0.288    0.275    0.288
 dbcsr_reserve_blocks             24439 10.7    0.248    0.263    0.273    0.288
 cp_cfm_to_fm                      1477  6.9    0.257    0.262    0.257    0.262
 self_consistency_check              45  5.0    0.011    0.011    0.209    0.225
 dbcsr_zero                      132504  9.2    0.198    0.220    0.198    0.220
 pw_poisson_solve                    45  8.0    0.001    0.001    0.213    0.214
 mp_sum_dv                          340  3.5    0.084    0.187    0.084    0.187
 cp_cfm_to_cfm_columns             1477  7.9    0.182    0.187    0.182    0.187
 mp_sum_d                         15273  8.7    0.144    0.187    0.144    0.187
 cp_sm_mix                         7245  6.0    0.080    0.087    0.161    0.187
 dbcsr_iterator_seek             466540 10.1    0.166    0.180    0.166    0.180
 transfer_rs2pw_170                  46  9.0    0.062    0.064    0.152    0.175
 dbcsr_make_index_exist          250153  9.4    0.160    0.173    0.160    0.173
 mp_isendrecv_dv                   1267 13.0    0.078    0.167    0.078    0.167
 transfer_pw2rs_170                  45 12.0    0.061    0.063    0.144    0.159
 init_scf_run                         1  3.0    0.000    0.000    0.153    0.157
 scf_env_initial_rho_setup            1  4.0    0.000    0.000    0.153    0.157
 merge_index                      70195 11.3    0.144    0.153    0.144    0.153
 cp_fm_to_fm_matrix                2880  8.0    0.148    0.150    0.148    0.150
 mp_irecv_iv                     278848  8.3    0.018    0.145    0.018    0.145
 fft_wrap_pw1pw2_170                 91 10.5    0.010    0.011    0.141    0.145
 mp_send_dv                         483  7.0    0.037    0.144    0.037    0.144
 pw_integral_ab_c1d_c1d_gs           45  9.0    0.135    0.138    0.140    0.141
 pw_gather_p                        365 11.8    0.120    0.123    0.120    0.123
 restraint_control                    1  2.0    0.000    0.000    0.059    0.118
 mp_sum_i                             4  2.8    0.059    0.118    0.059    0.118
 cp_fm_cleanup_copy_general       49552  7.0    0.078    0.079    0.116    0.117
 qs_energies_init_hamiltonians        1  3.0    0.000    0.000    0.116    0.116
 dbcsr_switch_data_area           93827 10.5    0.084    0.086    0.110    0.113
 mp_max_d                          7247  7.0    0.065    0.110    0.065    0.110
 qs_init_subsys                       1  2.0    0.002    0.002    0.102    0.102
 mp_isend_iv                     157000  8.3    0.028    0.100    0.028    0.100
 qs_env_setup                         1  3.0    0.000    0.000    0.099    0.100
 qs_env_rebuild_pw_env                2  3.5    0.000    0.000    0.098    0.099
 pw_derive                          405 11.3    0.090    0.099    0.090    0.099
 pw_env_rebuild                       1  5.0    0.000    0.001    0.098    0.099
 pw_grid_setup                        4  6.0    0.000    0.000    0.092    0.093
 pw_grid_setup_internal               4  7.0    0.002    0.003    0.092    0.092
 parser_read_line                  4976  4.1    0.002    0.002    0.086    0.089
 parser_read_line_low                23  6.2    0.008    0.034    0.084    0.087
 pw_copy                            675 10.5    0.085    0.087    0.085    0.087
 broadcast_input_information         23  7.2    0.025    0.029    0.076    0.083
 dbcsr_get_data_size_used        164022  9.8    0.075    0.079    0.075    0.079
 mp_irecv_im2                    139424  8.3    0.009    0.071    0.009    0.071
 dbcsr_distribution_new           70197  8.6    0.067    0.071    0.067    0.071
 cp_fm_create                       468  4.1    0.068    0.071    0.068    0.071
 pw_grid_sort                         4  8.0    0.042    0.043    0.065    0.065
 build_core_hamiltonian_matrix        1  4.0    0.001    0.001    0.058    0.064
 topology_control                     1  2.0    0.000    0.000    0.062    0.062
 cp_dbcsr_alloc_block_from_nbl     1399  5.5    0.024    0.027    0.056    0.062
 dbcsr_make_dbcsr_index          188461 10.9    0.059    0.060    0.059    0.060
 qs_env_update_s_mstruct              1  4.0    0.000    0.000    0.055    0.058
 create_qs_kind_set                   1  2.0    0.000    0.000    0.055    0.055
 read_qs_kind                         1  3.0    0.025    0.028    0.055    0.055
 pw_poisson_set                      46  8.9    0.001    0.001    0.052    0.053
 scf_post_calculation_gpw             1  3.0    0.000    0.000    0.051    0.051
 write_available_results              1  4.0    0.000    0.000    0.051    0.051
 write_mo_free_results                1  5.0    0.003    0.003    0.051    0.051
 mp_sum_dm                           44  7.0    0.028    0.050    0.028    0.050
 calculate_rho_core                   1  5.0    0.003    0.004    0.042    0.048
 mp_recv_dv                        1449  7.0    0.006    0.047    0.006    0.047
 transfer_rs2pw_60                   46  9.0    0.010    0.011    0.037    0.047
 kpoint_initialize_mos                2  2.5    0.000    0.000    0.046    0.047
 mp_irecv_dv                      70304  8.3    0.043    0.046    0.043    0.046
 mp_isend_im2                     78500  8.3    0.012    0.046    0.012    0.046
 pw_copy_from_array                 450 12.2    0.041    0.046    0.041    0.046
 read_cell_cif                        2  4.5    0.002    0.004    0.042    0.043
 mixing_init                          1  5.0    0.039    0.041    0.041    0.041
 fft_wrap_pw1pw2_60                  91 10.5    0.002    0.002    0.038    0.040
 coordinate_control                   1  3.0    0.001    0.001    0.038    0.038
 coordinate_control_READ_COORDI       1  4.0    0.000    0.000    0.037    0.038
 transfer_pw2rs_60                   45 12.0    0.012    0.012    0.035    0.038
 read_coordinate_cif                  1  5.0    0.002    0.002    0.037    0.037
 pw_axpy                            454  9.3    0.034    0.036    0.034    0.036
 mp_bcast_i_src                      92  8.2    0.029    0.036    0.029    0.036
 pw_copy_to_array                   365 11.8    0.030    0.033    0.030    0.033
 mp_bcast_am_src                     23  8.2    0.014    0.015    0.021    0.030
 calculate_hirshfeld_normalizat       1  6.0    0.007    0.008    0.023    0.023
 sort_shells                          4  9.0    0.023    0.023    0.023    0.023
 hirshfeld_integration                1  6.0    0.008    0.008    0.021    0.021
 pw_zero                            226 10.4    0.019    0.021    0.019    0.021
 qs_scf_ensure_mos                    1  3.0    0.001    0.001    0.018    0.020
 mixing_allocate                      1  3.0    0.001    0.001    0.017    0.018
 -------------------------------------------------------------------------------

 The number of warnings for this run is : 1
 
 -------------------------------------------------------------------------------
  **** **** ******  **  PROGRAM ENDED AT                 2025-08-05 00:24:18.953
 ***** ** ***  *** **   PROGRAM RAN ON                              i02r11c03s12
 **    ****   ******    PROGRAM RAN BY                                   di38fab
 ***** **    ** ** **   PROGRAM PROCESS ID                               2582656
  **** **  *******  **  PROGRAM STOPPED IN /hppfs/scratch/04/di38fab/09_GTH/Delt
                                           a_Set/Cl/aug-DZVP-MOLOPT-GTH-tier-2-S
                                           R/8x8x8
