B                                       
   1.00000000000000     
     4.285378    0.000000    2.377414
    -1.483226    4.020511   -2.377414
     0.000000    0.000000    5.050980
   B 
    12
Direct
  0.989690  0.010310  0.674650
  0.010310  0.989690  0.325350
  0.989690  0.654040  0.674650
  0.010310  0.345960  0.325350
  0.345960  0.010310  0.674650
  0.654040  0.989690  0.325350
  0.778850  0.221150  0.072740
  0.221150  0.778850  0.927260
  0.778850  0.630430  0.072740
  0.221150  0.369570  0.927260
  0.369570  0.221150  0.072740
  0.630430  0.778850  0.927260
 
   48   48   56
  10.234      10.519      11.399      12.946      15.262      18.467      22.671      27.950      34.295      41.545    
  49.310      56.924      63.478      67.986      69.650      68.137      63.716      57.188      49.625      42.070    
  35.317      29.846      25.884      23.503      22.710      23.503      25.884      29.846      35.317      42.070    
  49.625      57.188      63.716      68.137      69.650      67.986      63.478      56.924      49.310      41.545    
  34.295      27.950      22.671      18.467      15.262      12.946      11.399      10.519      10.519      10.519    
  11.101      12.314      14.245      17.005      20.714      25.468      31.308      38.160      45.760      53.587    
  60.837      66.526      69.712      69.793      66.730      61.086      53.844      46.107      38.822      32.634    
  27.885      24.706      23.119      23.120      24.709      27.891      32.639      38.822      46.100      53.835    
  61.081      66.729      69.792      69.710      66.526      60.844      53.598      45.770      38.162      31.304    
  25.463      20.711      17.005      14.246      12.315      11.102      11.399      11.101      11.399      12.314    
  13.910      16.284      19.548      23.815      29.160      35.580      42.921      50.793      58.524      65.187    
  69.770      71.457      69.901      65.368      58.671      50.914      43.176      36.283      30.729      26.732    
  24.344      23.552      24.346      26.736      30.732      36.283      43.172      50.908      58.669      65.370    
  69.903      71.454      69.765      65.185      58.530      50.804      42.928      35.580      29.154      23.810    
  19.547      16.285      13.912      12.315      12.946      12.314      12.314      12.945      14.244      16.284    
  19.159      22.980      27.845      33.803      40.780      48.502      56.416      63.683      69.318      72.441    
  72.482      69.373      63.622      56.195      48.233      40.739      34.402      29.576      26.372      24.784    
  24.783      26.369      29.572      34.399      40.738      48.234      56.199      63.627      69.378      72.484    
  72.439      69.314      63.679      56.414      48.501      40.780      33.803      27.847      22.983      19.162    
  16.285      14.246      15.262      14.245      13.910      14.244      15.262      17.005      19.546      22.978    
  27.400      32.883      39.412      46.789      54.543      61.884      67.950      71.984      73.406      71.919    
  67.641      61.178      53.519      45.758      38.794      33.184      29.166      26.776      25.984      26.772    
  29.159      33.178      38.793      45.762      53.525      61.181      67.641      71.919      73.409      71.989    
  67.952      61.878      54.533      46.783      39.414      32.892      27.409      22.983      19.547      17.005    
  18.467      17.005      16.284      16.284      17.005      18.466      20.711      23.811      27.846      32.886    
  38.936      45.846      53.167      60.096      65.862      69.940      72.018      71.875      69.372      64.612    
  58.112      50.772      43.603      37.407      32.637      29.457      27.878      27.878      29.456      32.635    
  37.404      43.602      50.773      58.112      64.607      69.365      71.873      72.024      69.950      65.867    
  60.094      53.164      45.848      38.943      32.892      27.847      23.810      20.711      22.671      20.714    
  19.548      19.159      19.546      20.711      22.670      25.465      29.159      33.807      39.412      45.842    
  52.649      58.945      63.909      67.169      68.818      69.087      67.990      65.284      60.809      54.866    
  48.248      41.916      36.607      32.710      30.360      29.578      30.363      32.714      36.608      41.914    
  48.245      54.862      60.805      65.278      67.985      69.086      68.821      67.176      63.917      58.953    
  52.657      45.848      39.414      33.803      29.154      25.463      27.950      25.468      23.815      22.980    
  22.978      23.811      25.465      27.948      31.303      35.580      40.783      46.784      53.160      58.944    
  63.109      65.188      65.526      64.963      64.137      62.963      60.792      57.077      51.948      46.189    
  40.755      36.337      33.287      31.741      31.743      33.291      36.340      40.755      46.186      51.944    
  57.074      60.792      62.966      64.139      64.961      65.522      65.189      63.117      58.953      53.164    
  46.783      40.780      35.580      31.304      34.295      31.308      29.160      27.845      27.400      27.846    
  29.159      31.303      34.286      38.154      42.925      48.501      54.532      60.090      63.914      65.191    
  64.133      61.942      60.038      59.058      58.451      57.046      54.051      49.624      44.634      40.032    
  36.451      34.213      33.453      34.212      36.450      40.032      44.632      49.621      54.051      57.052    
  58.462      59.067      60.039      61.934      64.125      65.189      63.917      60.094      54.533      48.501    
  42.928      38.162      41.545      38.160      35.580      33.803      32.883      32.886      33.807      35.580    
  38.154      41.537      45.763      50.797      56.407      61.873      65.866      67.177      65.524      61.938    
  58.286      56.098      55.564      55.534      54.523      51.820      47.799      43.424      39.574      36.786    
  35.332      35.328      36.778      39.568      43.422      47.796      51.817      54.526      55.543      55.573    
  56.101      58.283      61.934      65.522      67.176      65.867      61.878      56.414      50.804      45.770    
  49.310      45.760      42.921      40.780      39.412      38.936      39.412      40.783      42.925      45.763    
  49.307      53.588      58.519      63.670      67.947      69.947      68.817      64.955      60.033      56.099    
  54.283      54.127      54.100      52.831      49.981      46.175      42.346      39.213      37.195      36.499    
  37.190      39.207      42.342      46.174      49.981      52.830      54.096      54.122      54.281      56.101    
  60.039      64.961      68.821      69.950      67.952      63.679      58.530      53.598      56.924      53.587    
  50.793      48.502      46.789      45.846      45.842      46.784      48.501      50.797      53.588      56.920    
  60.836      65.178      69.308      71.983      72.018      69.078      64.129      59.059      55.575      54.133    
  53.799      53.114      51.175      48.066      44.505      41.259      38.858      37.595      37.597      38.861    
  41.259      44.504      48.068      51.178      53.110      53.788      54.122      55.573      59.067      64.139    
  69.086      72.024      71.989      69.314      65.185      60.844      63.478      60.837      58.524      56.416    
  54.543      53.167      52.649      53.160      54.532      56.407      58.519      60.836      63.477      66.521    
  69.757      72.432      73.404      71.869      67.983      62.966      58.463      55.544      54.095      53.107    
  51.541      49.017      45.870      42.735      40.168      38.517      37.952      38.522      40.173      42.736    
  45.868      49.015      51.542      53.110      54.096      55.543      58.462      62.966      67.985      71.873    
  73.409      72.439      69.765      66.526      67.986      66.526      65.187      63.683      61.884      60.096    
  58.945      58.944      60.090      61.873      63.670      65.178      66.521      67.981      69.701      71.445    
  72.477      71.916      69.367      65.284      60.797      57.050      54.515      52.817      51.172      49.019    
  46.338      43.511      41.009      39.185      38.232      38.232      39.185      41.008      43.507      46.331    
  49.015      51.178      52.830      54.526      57.052      60.792      65.278      69.365      71.919      72.484    
  71.454      69.710      69.650      69.712      69.770      69.318      67.950      65.862      63.909      63.109    
  63.914      65.866      67.947      69.308      69.757      69.701      69.643      69.784      69.893      69.369    
  67.636      64.608      60.806      57.071      54.043      51.810      49.980      48.072      45.874      43.513    
  41.300      39.537      38.419      38.036      38.416      39.533      41.294      43.507      45.868      48.068    
  49.981      51.817      54.051      57.074      60.805      64.607      67.641      69.378      69.903      69.792    
  68.137      69.793      71.457      72.441      71.984      69.940      67.169      65.188      65.191      67.177    
  69.947      71.983      72.432      71.445      69.784      68.132      66.722      65.360      63.615      61.172    
  58.106      54.857      51.941      49.623      47.803      46.182      44.509      42.736      41.007      39.534    
  38.484      37.943      37.942      38.481      39.533      41.008      42.736      44.504      46.174      47.796    
  49.621      51.944      54.862      58.112      61.181      63.627      65.370      66.729      63.716      66.730    
  69.901      72.482      73.406      72.018      68.818      65.526      64.133      65.524      68.817      72.018    
  73.404      72.477      69.893      66.722      63.711      61.076      58.662      56.190      53.515      50.766    
  48.243      46.191      44.641      43.429      42.343      41.252      40.164      39.180      38.416      37.945    
  37.786      37.942      38.416      39.185      40.173      41.259      42.342      43.422      44.632      46.186    
  48.245      50.773      53.525      56.199      58.669      61.081      57.188      61.086      65.368      69.373    
  71.919      71.875      69.087      64.963      61.942      61.938      64.955      69.078      71.869      71.916    
  69.369      65.360      61.076      57.182      53.835      50.908      48.230      45.755      43.598      41.916    
  40.759      40.032      39.565      39.201      38.855      38.519      38.233      38.038      37.945      37.943    
  38.036      38.232      38.522      38.861      39.207      39.568      40.032      40.755      41.914      43.602    
  45.762      48.234      50.908      53.835      49.625      53.844      58.671      63.622      67.641      69.372    
  67.990      64.137      60.038      58.286      60.033      64.129      67.983      69.367      67.636      63.615    
  58.662      53.835      49.619      46.098      43.172      40.738      38.792      37.402      36.604      36.333    
  36.443      36.775      37.195      37.606      37.957      38.233      38.416      38.484      38.419      38.232    
  37.952      37.597      37.190      36.778      36.450      36.340      36.608      37.404      38.793      40.738    
  43.172      46.100      42.070      46.107      50.914      56.195      61.178      64.612      65.284      62.963    
  59.058      56.098      56.099      59.059      62.966      65.284      64.608      61.172      56.190      50.908    
  46.098      42.059      38.814      36.283      34.402      33.178      32.629      32.707      33.284      34.210    
  35.333      36.510      37.606      38.519      39.180      39.534      39.537      39.185      38.517      37.595    
  36.499      35.328      34.212      33.291      32.714      32.635      33.178      34.399      36.283      38.822    
  35.317      38.822      43.176      48.233      53.519      58.112      60.809      60.792      58.451      55.564    
  54.283      55.575      58.463      60.797      60.806      58.106      53.515      48.230      43.172      38.814    
  35.308      32.634      30.730      29.571      29.158      29.455      30.362      31.743      33.454      35.333    
  37.195      38.855      40.164      41.007      41.300      41.009      40.168      38.858      37.195      35.332    
  33.453      31.743      30.363      29.456      29.159      29.572      30.732      32.639      29.846      32.634    
  36.283      40.739      45.758      50.772      54.866      57.077      57.046      55.534      54.127      54.133    
  55.544      57.050      57.071      54.857      50.766      45.755      40.738      36.283      32.634      29.843    
  27.885      26.730      26.367      26.773      27.881      29.581      31.743      34.210      36.775      39.201    
  41.252      42.736      43.513      43.511      42.735      41.259      39.213      36.786      34.213      31.741    
  29.578      27.878      26.772      26.369      26.736      27.891      25.884      27.885      30.729      34.402    
  38.794      43.603      48.248      51.948      54.051      54.523      54.100      53.799      54.095      54.515    
  54.043      51.941      48.243      43.598      38.792      34.402      30.730      27.885      25.882      24.706    
  24.342      24.780      25.984      27.881      30.362      33.284      36.443      39.565      42.343      44.509    
  45.874      46.338      45.870      44.505      42.346      39.574      36.451      33.287      30.360      27.878    
  25.984      24.783      24.346      24.709      23.503      24.706      26.732      29.576      33.184      37.407    
  41.916      46.189      49.624      51.820      52.831      53.114      53.107      52.817      51.810      49.623    
  46.191      41.916      37.402      33.178      29.571      26.730      24.706      23.504      23.119      23.548    
  24.780      26.773      29.455      32.707      36.333      40.032      43.429      46.182      48.072      49.019    
  49.017      48.066      46.175      43.424      40.032      36.337      32.710      29.457      26.776      24.784    
  23.552      23.120      22.710      23.119      24.344      26.372      29.166      32.637      36.607      40.755    
  44.634      47.799      49.981      51.175      51.541      51.172      49.980      47.803      44.641      40.759    
  36.604      32.629      29.158      26.367      24.342      23.119      22.710      23.119      24.342      26.367    
  29.158      32.629      36.604      40.759      44.641      47.803      49.980      51.172      51.541      51.175    
  49.981      47.799      44.634      40.755      36.607      32.637      29.166      26.372      24.344      23.119    
  23.503      23.120      23.552      24.784      26.776      29.457      32.710      36.337      40.032      43.424    
  46.175      48.066      49.017      49.019      48.072      46.182      43.429      40.032      36.333      32.707    
  29.455      26.773      24.780      23.548      23.119      23.504      24.706      26.730      29.571      33.178    
  37.402      41.916      46.191      49.623      51.810      52.817      53.107      53.114      52.831      51.820    
  49.624      46.189      41.916      37.407      33.184      29.576      26.732      24.706      25.884      24.709    
  24.346      24.783      25.984      27.878      30.360      33.287      36.451      39.574      42.346      44.505    
  45.870      46.338      45.874      44.509      42.343      39.565      36.443      33.284      30.362      27.881    
  25.984      24.780      24.342      24.706      25.882      27.885      30.730      34.402      38.792      43.598    
  48.243      51.941      54.043      54.515      54.095      53.799      54.100      54.523      54.051      51.948    
  48.248      43.603      38.794      34.402      30.729      27.885      29.846      27.891      26.736      26.369    
  26.772      27.878      29.578      31.741      34.213      36.786      39.213      41.259      42.735      43.511    
  43.513      42.736      41.252      39.201      36.775      34.210      31.743      29.581      27.881      26.773    
  26.367      26.730      27.885      29.843      32.634      36.283      40.738      45.755      50.766      54.857    
  57.071      57.050      55.544      54.133      54.127      55.534      57.046      57.077      54.866      50.772    
  45.758      40.739      36.283      32.634      35.317      32.639      30.732      29.572      29.159      29.456    
  30.363      31.743      33.453      35.332      37.195      38.858      40.168      41.009      41.300      41.007    
  40.164      38.855      37.195      35.333      33.454      31.743      30.362      29.455      29.158      29.571    
  30.730      32.634      35.308      38.814      43.172      48.230      53.515      58.106      60.806      60.797    
  58.463      55.575      54.283      55.564      58.451      60.792      60.809      58.112      53.519      48.233    
  43.176      38.822      42.070      38.822      36.283      34.399      33.178      32.635      32.714      33.291    
  34.212      35.328      36.499      37.595      38.517      39.185      39.537      39.534      39.180      38.519    
  37.606      36.510      35.333      34.210      33.284      32.707      32.629      33.178      34.402      36.283    
  38.814      42.059      46.098      50.908      56.190      61.172      64.608      65.284      62.966      59.059    
  56.099      56.098      59.058      62.963      65.284      64.612      61.178      56.195      50.914      46.107    
  49.625      46.100      43.172      40.738      38.793      37.404      36.608      36.340      36.450      36.778    
  37.190      37.597      37.952      38.232      38.419      38.484      38.416      38.233      37.957      37.606    
  37.195      36.775      36.443      36.333      36.604      37.402      38.792      40.738      43.172      46.098    
  49.619      53.835      58.662      63.615      67.636      69.367      67.983      64.129      60.033      58.286    
  60.038      64.137      67.990      69.372      67.641      63.622      58.671      53.844      57.188      53.835    
  50.908      48.234      45.762      43.602      41.914      40.755      40.032      39.568      39.207      38.861    
  38.522      38.232      38.036      37.943      37.945      38.038      38.233      38.519      38.855      39.201    
  39.565      40.032      40.759      41.916      43.598      45.755      48.230      50.908      53.835      57.182    
  61.076      65.360      69.369      71.916      71.869      69.078      64.955      61.938      61.942      64.963    
  69.087      71.875      71.919      69.373      65.368      61.086      63.716      61.081      58.669      56.199    
  53.525      50.773      48.245      46.186      44.632      43.422      42.342      41.259      40.173      39.185    
  38.416      37.942      37.786      37.945      38.416      39.180      40.164      41.252      42.343      43.429    
  44.641      46.191      48.243      50.766      53.515      56.190      58.662      61.076      63.711      66.722    
  69.893      72.477      73.404      72.018      68.817      65.524      64.133      65.526      68.818      72.018    
  73.406      72.482      69.901      66.730      68.137      66.729      65.370      63.627      61.181      58.112    
  54.862      51.944      49.621      47.796      46.174      44.504      42.736      41.008      39.533      38.481    
  37.942      37.943      38.484      39.534      41.007      42.736      44.509      46.182      47.803      49.623    
  51.941      54.857      58.106      61.172      63.615      65.360      66.722      68.132      69.784      71.445    
  72.432      71.983      69.947      67.177      65.191      65.188      67.169      69.940      71.984      72.441    
  71.457      69.793      69.650      69.792      69.903      69.378      67.641      64.607      60.805      57.074    
  54.051      51.817      49.981      48.068      45.868      43.507      41.294      39.533      38.416      38.036    
  38.419      39.537      41.300      43.513      45.874      48.072      49.980      51.810      54.043      57.071    
  60.806      64.608      67.636      69.369      69.893      69.784      69.643      69.701      69.757      69.308    
  67.947      65.866      63.914      63.109      63.909      65.862      67.950      69.318      69.770      69.712    
  67.986      69.710      71.454      72.484      71.919      69.365      65.278      60.792      57.052      54.526    
  52.830      51.178      49.015      46.331      43.507      41.008      39.185      38.232      38.232      39.185    
  41.009      43.511      46.338      49.019      51.172      52.817      54.515      57.050      60.797      65.284    
  69.367      71.916      72.477      71.445      69.701      67.981      66.521      65.178      63.670      61.873    
  60.090      58.944      58.945      60.096      61.884      63.683      65.187      66.526      63.478      66.526    
  69.765      72.439      73.409      71.873      67.985      62.966      58.462      55.543      54.096      53.110    
  51.542      49.015      45.868      42.736      40.173      38.522      37.952      38.517      40.168      42.735    
  45.870      49.017      51.541      53.107      54.095      55.544      58.463      62.966      67.983      71.869    
  73.404      72.432      69.757      66.521      63.477      60.836      58.519      56.407      54.532      53.160    
  52.649      53.167      54.543      56.416      58.524      60.837      56.924      60.844      65.185      69.314    
  71.989      72.024      69.086      64.139      59.067      55.573      54.122      53.788      53.110      51.178    
  48.068      44.504      41.259      38.861      37.597      37.595      38.858      41.259      44.505      48.066    
  51.175      53.114      53.799      54.133      55.575      59.059      64.129      69.078      72.018      71.983    
  69.308      65.178      60.836      56.920      53.588      50.797      48.501      46.784      45.842      45.846    
  46.789      48.502      50.793      53.587      49.310      53.598      58.530      63.679      67.952      69.950    
  68.821      64.961      60.039      56.101      54.281      54.122      54.096      52.830      49.981      46.174    
  42.342      39.207      37.190      36.499      37.195      39.213      42.346      46.175      49.981      52.831    
  54.100      54.127      54.283      56.099      60.033      64.955      68.817      69.947      67.947      63.670    
  58.519      53.588      49.307      45.763      42.925      40.783      39.412      38.936      39.412      40.780    
  42.921      45.760      41.545      45.770      50.804      56.414      61.878      65.867      67.176      65.522    
  61.934      58.283      56.101      55.573      55.543      54.526      51.817      47.796      43.422      39.568    
  36.778      35.328      35.332      36.786      39.574      43.424      47.799      51.820      54.523      55.534    
  55.564      56.098      58.286      61.938      65.524      67.177      65.866      61.873      56.407      50.797    
  45.763      41.537      38.154      35.580      33.807      32.886      32.883      33.803      35.580      38.160    
  34.295      38.162      42.928      48.501      54.533      60.094      63.917      65.189      64.125      61.934    
  60.039      59.067      58.462      57.052      54.051      49.621      44.632      40.032      36.450      34.212    
  33.453      34.213      36.451      40.032      44.634      49.624      54.051      57.046      58.451      59.058    
  60.038      61.942      64.133      65.191      63.914      60.090      54.532      48.501      42.925      38.154    
  34.286      31.303      29.159      27.846      27.400      27.845      29.160      31.308      27.950      31.304    
  35.580      40.780      46.783      53.164      58.953      63.117      65.189      65.522      64.961      64.139    
  62.966      60.792      57.074      51.944      46.186      40.755      36.340      33.291      31.743      31.741    
  33.287      36.337      40.755      46.189      51.948      57.077      60.792      62.963      64.137      64.963    
  65.526      65.188      63.109      58.944      53.160      46.784      40.783      35.580      31.303      27.948    
  25.465      23.811      22.978      22.980      23.815      25.468      22.671      25.463      29.154      33.803    
  39.414      45.848      52.657      58.953      63.917      67.176      68.821      69.086      67.985      65.278    
  60.805      54.862      48.245      41.914      36.608      32.714      30.363      29.578      30.360      32.710    
  36.607      41.916      48.248      54.866      60.809      65.284      67.990      69.087      68.818      67.169    
  63.909      58.945      52.649      45.842      39.412      33.807      29.159      25.465      22.670      20.711    
  19.546      19.159      19.548      20.714      18.467      20.711      23.810      27.847      32.892      38.943    
  45.848      53.164      60.094      65.867      69.950      72.024      71.873      69.365      64.607      58.112    
  50.773      43.602      37.404      32.635      29.456      27.878      27.878      29.457      32.637      37.407    
  43.603      50.772      58.112      64.612      69.372      71.875      72.018      69.940      65.862      60.096    
  53.167      45.846      38.936      32.886      27.846      23.811      20.711      18.466      17.005      16.284    
  16.284      17.005      15.262      17.005      19.547      22.983      27.409      32.892      39.414      46.783    
  54.533      61.878      67.952      71.989      73.409      71.919      67.641      61.181      53.525      45.762    
  38.793      33.178      29.159      26.772      25.984      26.776      29.166      33.184      38.794      45.758    
  53.519      61.178      67.641      71.919      73.406      71.984      67.950      61.884      54.543      46.789    
  39.412      32.883      27.400      22.978      19.546      17.005      15.262      14.244      13.910      14.245    
  12.946      14.246      16.285      19.162      22.983      27.847      33.803      40.780      48.501      56.414    
  63.679      69.314      72.439      72.484      69.378      63.627      56.199      48.234      40.738      34.399    
  29.572      26.369      24.783      24.784      26.372      29.576      34.402      40.739      48.233      56.195    
  63.622      69.373      72.482      72.441      69.318      63.683      56.416      48.502      40.780      33.803    
  27.845      22.980      19.159      16.284      14.244      12.945      12.314      12.314      11.399      12.315    
  13.912      16.285      19.547      23.810      29.154      35.580      42.928      50.804      58.530      65.185    
  69.765      71.454      69.903      65.370      58.669      50.908      43.172      36.283      30.732      26.736    
  24.346      23.552      24.344      26.732      30.729      36.283      43.176      50.914      58.671      65.368    
  69.901      71.457      69.770      65.187      58.524      50.793      42.921      35.580      29.160      23.815    
  19.548      16.284      13.910      12.314      11.399      11.101      10.519      11.102      12.315      14.246    
  17.005      20.711      25.463      31.304      38.162      45.770      53.598      60.844      66.526      69.710    
  69.792      66.729      61.081      53.835      46.100      38.822      32.639      27.891      24.709      23.120    
  23.119      24.706      27.885      32.634      38.822      46.107      53.844      61.086      66.730      69.793    
  69.712      66.526      60.837      53.587      45.760      38.160      31.308      25.468      20.714      17.005    
  14.245      12.314      11.101      10.519      10.508      11.046      12.208      14.080      16.773      20.404    
  25.071      30.814      37.559      45.050      52.774      59.953      65.630      68.882      69.101      66.216    
  60.751      53.655      46.011      38.762      32.557      27.750      24.484      22.794      22.680      24.143    
  27.186      31.781      37.804      44.936      52.573      59.810      65.573      68.872      69.110      66.266    
  60.881      53.851      46.148      38.587      31.717      25.827      21.009      17.233      14.412      12.429    
  11.171      10.548      10.548      10.795      11.640      13.148      15.420      18.571      22.715      27.930    
  34.214      41.421      49.182      56.849      63.524      68.213      70.089      68.777      64.504      58.042    
  50.462      42.827      35.961      30.371      26.295      23.802      22.898      23.577      25.845      29.699    
  35.081      41.782      49.345      56.993      63.687      68.333      70.098      68.668      64.343      57.895    
  50.310      42.512      35.191      28.759      23.390      19.099      15.814      13.424      11.813      10.878    
  11.171      11.129      11.683      12.874      14.780      17.509      21.176      25.883      31.685      38.528    
  46.170      54.107      61.545      67.490      70.969      71.332      68.479      62.922      55.635      47.751    
  40.271      33.885      28.964      25.644      23.937      23.826      25.306      28.396      33.089      39.275    