B                                       
   1.00000000000000     
     4.285378    0.000000    2.377414
    -1.483226    4.020511   -2.377414
     0.000000    0.000000    5.050980
   B 
    12
Direct
  0.989690  0.010310  0.674650
  0.010310  0.989690  0.325350
  0.989690  0.654040  0.674650
  0.010310  0.345960  0.325350
  0.345960  0.010310  0.674650
  0.654040  0.989690  0.325350
  0.778850  0.221150  0.072740
  0.221150  0.778850  0.927260
  0.778850  0.630430  0.072740
  0.221150  0.369570  0.927260
  0.369570  0.221150  0.072740
  0.630430  0.778850  0.927260
 
   48   48   56
 0.10233604932E+02 0.10518756669E+02 0.11399291340E+02 0.12945845904E+02 0.15262038153E+02
 0.18466567885E+02 0.22671105829E+02 0.27950201832E+02 0.34294878251E+02 0.41544748749E+02
 0.49310377013E+02 0.56924425907E+02 0.63478465833E+02 0.67985975003E+02 0.69650281152E+02
 0.68137193695E+02 0.63716391174E+02 0.57187629813E+02 0.49624820483E+02 0.42069882066E+02
 0.35316557813E+02 0.29846253028E+02 0.25884431073E+02 0.23503133226E+02 0.22710346399E+02
 0.23503133226E+02 0.25884431073E+02 0.29846253028E+02 0.35316557813E+02 0.42069882066E+02
 0.49624820483E+02 0.57187629813E+02 0.63716391174E+02 0.68137193695E+02 0.69650281152E+02
 0.67985975003E+02 0.63478465833E+02 0.56924425907E+02 0.49310377013E+02 0.41544748749E+02
 0.34294878251E+02 0.27950201832E+02 0.22671105829E+02 0.18466567885E+02 0.15262038153E+02
 0.12945845904E+02 0.11399291340E+02 0.10518756669E+02 0.10518756669E+02 0.10518559596E+02
 0.11101347829E+02 0.12314486563E+02 0.14244982909E+02 0.17005396916E+02 0.20713996334E+02
 0.25468371944E+02 0.31308195763E+02 0.38159662040E+02 0.45760457924E+02 0.53587195216E+02
 0.60837423223E+02 0.66525837360E+02 0.69711821433E+02 0.69792729619E+02 0.66730020596E+02
 0.61085743836E+02 0.53843519578E+02 0.46106823157E+02 0.38822216192E+02 0.32634082639E+02
 0.27885139311E+02 0.24705607710E+02 0.23119182646E+02 0.23120241220E+02 0.24709377137E+02
 0.27891421571E+02 0.32639405275E+02 0.38821895853E+02 0.46100100071E+02 0.53835012839E+02
 0.61080616293E+02 0.66728657139E+02 0.69791718608E+02 0.69709767325E+02 0.66526054539E+02
 0.60843714185E+02 0.53598159252E+02 0.45769772663E+02 0.38162128012E+02 0.31304352770E+02
 0.25462882795E+02 0.20710691869E+02 0.17004771486E+02 0.14245610050E+02 0.12315233332E+02
 0.11101873129E+02 0.11399291340E+02 0.11101347829E+02 0.11398967569E+02 0.12314070263E+02
 0.13910183213E+02 0.16283505744E+02 0.19548063201E+02 0.23814582926E+02 0.29160014244E+02
 0.35580336719E+02 0.42920678537E+02 0.50793339189E+02 0.58523974090E+02 0.65186834605E+02
 0.69770284433E+02 0.71457064664E+02 0.69901102721E+02 0.65368060725E+02 0.58670847696E+02
 0.50913967160E+02 0.43176332762E+02 0.36282999902E+02 0.30728961405E+02 0.26732171223E+02
 0.24343956966E+02 0.23552253419E+02 0.24346099847E+02 0.26735934745E+02 0.30732274164E+02
 0.36282863777E+02 0.43171850837E+02 0.50908297523E+02 0.58668559416E+02 0.65369963601E+02
 0.69902906926E+02 0.71454472129E+02 0.69764899779E+02 0.65185270956E+02 0.58530445851E+02
 0.50804361281E+02 0.42928277689E+02 0.35580013356E+02 0.29154408814E+02 0.23809612195E+02
 0.19546996744E+02 0.16285335453E+02 0.13912350280E+02 0.12315233332E+02 0.12945845904E+02
 0.12314486563E+02 0.12314070263E+02 0.12944908889E+02 0.14244457310E+02 0.16283565969E+02
 0.19158932614E+02 0.22979846803E+02 0.27845255459E+02 0.33802603888E+02 0.40780324798E+02
 0.48501841108E+02 0.56416095415E+02 0.63682561905E+02 0.69318223121E+02 0.72441219142E+02
 0.72482180865E+02 0.69372898192E+02 0.63621772632E+02 0.56195194622E+02 0.48233014465E+02
 0.40739309123E+02 0.34401902992E+02 0.29575664206E+02 0.26372323561E+02 0.24784229386E+02
 0.24782874607E+02 0.26368891504E+02 0.29571669757E+02 0.34398903672E+02 0.40738292360E+02
 0.48234391569E+02 0.56198945935E+02 0.63627095054E+02 0.69377767035E+02 0.72484104378E+02
 0.72439205411E+02 0.69313887351E+02 0.63678708796E+02 0.56414179378E+02 0.48501298724E+02
 0.40780312361E+02 0.33803397877E+02 0.27847477383E+02 0.22983020662E+02 0.19161736520E+02
 0.16285335453E+02 0.14245610050E+02 0.15262038153E+02 0.14244982909E+02 0.13910183213E+02
 0.14244457310E+02 0.15261976203E+02 0.17005298693E+02 0.19546081515E+02 0.22977988050E+02
 0.27399772671E+02 0.32883271874E+02 0.39411922051E+02 0.46789079695E+02 0.54542911000E+02
 0.61883930510E+02 0.67950414275E+02 0.71983688402E+02 0.73405760934E+02 0.71918832731E+02
 0.67640859543E+02 0.61178093758E+02 0.53519242140E+02 0.45757996973E+02 0.38794253775E+02
 0.33184376646E+02 0.29165802831E+02 0.26776292298E+02 0.25984370222E+02 0.26771674243E+02
 0.29158613458E+02 0.33178377608E+02 0.38793042042E+02 0.45762070123E+02 0.53525081826E+02
 0.61181292552E+02 0.67640624663E+02 0.71918699069E+02 0.73409106465E+02 0.71988970770E+02
 0.67952034041E+02 0.61878322971E+02 0.54533126749E+02 0.46782522116E+02 0.39413597009E+02
 0.32891574000E+02 0.27408752391E+02 0.22983020662E+02 0.19546996744E+02 0.17004771486E+02
 0.18466567885E+02 0.17005396916E+02 0.16283505744E+02 0.16283565969E+02 0.17005298693E+02
 0.18466413940E+02 0.20711407594E+02 0.23810779102E+02 0.27846149845E+02 0.32885808939E+02
 0.38935655294E+02 0.45845596303E+02 0.53166559380E+02 0.60095595070E+02 0.65861726983E+02
 0.69939753920E+02 0.72017810311E+02 0.71875225184E+02 0.69372327838E+02 0.64611871256E+02
 0.58111538132E+02 0.50771595089E+02 0.43602836740E+02 0.37406734972E+02 0.32637024573E+02
 0.29457153485E+02 0.27878018649E+02 0.27878047733E+02 0.29456430242E+02 0.32634621703E+02
 0.37403873193E+02 0.43602102070E+02 0.50773239084E+02 0.58111890900E+02 0.64607409495E+02
 0.69365283846E+02 0.71872735724E+02 0.72023905983E+02 0.69949792903E+02 0.65867229032E+02
 0.60094098831E+02 0.53163966688E+02 0.45848207756E+02 0.38942693356E+02 0.32891574000E+02
 0.27847477383E+02 0.23809612195E+02 0.20710691869E+02 0.22671105829E+02 0.20713996334E+02
 0.19548063201E+02 0.19158932614E+02 0.19546081515E+02 0.20711407594E+02 0.22670236146E+02
 0.25465335503E+02 0.29159068839E+02 0.33806687315E+02 0.39412431268E+02 0.45842486753E+02
 0.52648512374E+02 0.58944905788E+02 0.63908670476E+02 0.67168517126E+02 0.68817522798E+02
 0.69087399443E+02 0.67990164216E+02 0.65283854804E+02 0.60809349870E+02 0.54865766800E+02
 0.48248365963E+02 0.41916257990E+02 0.36606961973E+02 0.32709973221E+02 0.30359637131E+02
 0.29577817282E+02 0.30363307916E+02 0.32714004762E+02 0.36608063769E+02 0.41914031646E+02
 0.48244677293E+02 0.54861933067E+02 0.60804937032E+02 0.65278481318E+02 0.67985497489E+02
 0.69086270826E+02 0.68821159172E+02 0.67175545830E+02 0.63916984566E+02 0.58953459097E+02
 0.52656595302E+02 0.45848207756E+02 0.39413597009E+02 0.33803397877E+02 0.29154408814E+02
 0.25462882795E+02 0.27950201832E+02 0.25468371944E+02 0.23814582926E+02 0.22979846803E+02
 0.22977988050E+02 0.23810779102E+02 0.25465335503E+02 0.27948273802E+02 0.31302908743E+02
 0.35580140920E+02 0.40782757088E+02 0.46783962886E+02 0.53159523028E+02 0.58943724777E+02
 0.63108901200E+02 0.65187912932E+02 0.65525506523E+02 0.64963266400E+02 0.64136628087E+02
 0.62963227133E+02 0.60791917731E+02 0.57077127176E+02 0.51947899384E+02 0.46188528283E+02
 0.40754794579E+02 0.36336697950E+02 0.33286765653E+02 0.31741288147E+02 0.31743108607E+02
 0.33290593055E+02 0.36339504075E+02 0.40755018069E+02 0.46186381926E+02 0.51944387498E+02
 0.57074154840E+02 0.60791861952E+02 0.62966121781E+02 0.64138694761E+02 0.64961078832E+02
 0.65521526277E+02 0.65188734037E+02 0.63116934730E+02 0.58953459097E+02 0.53163966688E+02
 0.46782522116E+02 0.40780312361E+02 0.35580013356E+02 0.31304352770E+02 0.34294878251E+02
 0.31308195763E+02 0.29160014244E+02 0.27845255459E+02 0.27399772671E+02 0.27846149845E+02
 0.29159068839E+02 0.31302908743E+02 0.34286153501E+02 0.38154188632E+02 0.42924714608E+02
 0.48501213573E+02 0.54532244840E+02 0.60090373507E+02 0.63913821355E+02 0.65191362997E+02
 0.64133252520E+02 0.61941852659E+02 0.60038127710E+02 0.59057743772E+02 0.58451400290E+02
 0.57046339640E+02 0.54051216055E+02 0.49623740432E+02 0.44633904175E+02 0.40032452912E+02
 0.36451444919E+02 0.34212816160E+02 0.33452891588E+02 0.34211646584E+02 0.36450307552E+02
 0.40031581065E+02 0.44632040431E+02 0.49620848678E+02 0.54050577542E+02 0.57051811386E+02
 0.58462016968E+02 0.59066632509E+02 0.60038523234E+02 0.61934122643E+02 0.64124704007E+02
 0.65188734037E+02 0.63916984566E+02 0.60094098831E+02 0.54533126749E+02 0.48501298724E+02
 0.42928277689E+02 0.38162128012E+02 0.41544748749E+02 0.38159662040E+02 0.35580336719E+02
 0.33802603888E+02 0.32883271874E+02 0.32885808939E+02 0.33806687315E+02 0.35580140920E+02
 0.38154188632E+02 0.41537342291E+02 0.45762532498E+02 0.50796799239E+02 0.56406704630E+02
 0.61873308951E+02 0.65865844341E+02 0.67176650466E+02 0.65524293128E+02 0.61938423849E+02
 0.58285897249E+02 0.56098478310E+02 0.55564362833E+02 0.55533767155E+02 0.54523287806E+02
 0.51819571136E+02 0.47799366281E+02 0.43424183312E+02 0.39573572922E+02 0.36785785206E+02
 0.35332204981E+02 0.35328298379E+02 0.36778116713E+02 0.39568405885E+02 0.43421779877E+02
 0.47796261623E+02 0.51816672106E+02 0.54525746921E+02 0.55542534695E+02 0.55573102256E+02
 0.56100931352E+02 0.58282644419E+02 0.61934122643E+02 0.65521526277E+02 0.67175545830E+02
 0.65867229032E+02 0.61878322971E+02 0.56414179378E+02 0.50804361281E+02 0.45769772663E+02
 0.49310377013E+02 0.45760457924E+02 0.42920678537E+02 0.40780324798E+02 0.39411922051E+02
 0.38935655294E+02 0.39412431268E+02 0.40782757088E+02 0.42924714608E+02 0.45762532498E+02
 0.49306599945E+02 0.53588476401E+02 0.58519015645E+02 0.63670070733E+02 0.67947368301E+02
 0.69946687113E+02 0.68816673780E+02 0.64954728285E+02 0.60032692217E+02 0.56098762900E+02
 0.54283435112E+02 0.54127272721E+02 0.54100400175E+02 0.52831193458E+02 0.49980514799E+02
 0.46174556659E+02 0.42346230830E+02 0.39213359328E+02 0.37195175438E+02 0.36498769407E+02
 0.37190406463E+02 0.39206975781E+02 0.42341985018E+02 0.46173745038E+02 0.49981078375E+02
 0.52829870544E+02 0.54095987669E+02 0.54121922358E+02 0.54280815245E+02 0.56100931352E+02
 0.60038523234E+02 0.64961078832E+02 0.68821159172E+02 0.69949792903E+02 0.67952034041E+02
 0.63678708796E+02 0.58530445851E+02 0.53598159252E+02 0.56924425907E+02 0.53587195216E+02
 0.50793339189E+02 0.48501841108E+02 0.46789079695E+02 0.45845596303E+02 0.45842486753E+02
 0.46783962886E+02 0.48501213573E+02 0.50796799239E+02 0.53588476401E+02 0.56919967412E+02
 0.60835965720E+02 0.65177889994E+02 0.69307738856E+02 0.71983231451E+02 0.72017631925E+02
 0.69078144779E+02 0.64128686036E+02 0.59059173620E+02 0.55574675667E+02 0.54132771880E+02
 0.53799151532E+02 0.53113968055E+02 0.51174812948E+02 0.48066164029E+02 0.44505311790E+02
 0.41258734304E+02 0.38857649607E+02 0.37595315090E+02 0.37597462996E+02 0.38860797316E+02
 0.41258661354E+02 0.44504067497E+02 0.48068057758E+02 0.51177546046E+02 0.53110257400E+02
 0.53787680635E+02 0.54121922358E+02 0.55573102256E+02 0.59066632509E+02 0.64138694761E+02
 0.69086270826E+02 0.72023905983E+02 0.71988970770E+02 0.69313887351E+02 0.65185270956E+02
 0.60843714185E+02 0.63478465833E+02 0.60837423223E+02 0.58523974090E+02 0.56416095415E+02
 0.54542911000E+02 0.53166559380E+02 0.52648512374E+02 0.53159523028E+02 0.54532244840E+02
 0.56406704630E+02 0.58519015645E+02 0.60835965720E+02 0.63476655565E+02 0.66521049055E+02
 0.69757436331E+02 0.72432144830E+02 0.73404066334E+02 0.71869270197E+02 0.67983133886E+02
 0.62965509270E+02 0.58463300982E+02 0.55543813673E+02 0.54094974565E+02 0.53107368431E+02
 0.51540748702E+02 0.49016742991E+02 0.45869561335E+02 0.42734871612E+02 0.40167815168E+02
 0.38516825089E+02 0.37951786953E+02 0.38521806171E+02 0.40173023755E+02 0.42736107732E+02
 0.45867513220E+02 0.49015438156E+02 0.51542452670E+02 0.53110257400E+02 0.54095987669E+02
 0.55542534695E+02 0.58462016968E+02 0.62966121781E+02 0.67985497489E+02 0.71872735724E+02
 0.73409106465E+02 0.72439205411E+02 0.69764899779E+02 0.66526054539E+02 0.67985975003E+02
 0.66525837360E+02 0.65186834605E+02 0.63682561905E+02 0.61883930510E+02 0.60095595070E+02
 0.58944905788E+02 0.58943724777E+02 0.60090373507E+02 0.61873308951E+02 0.63670070733E+02
 0.65177889994E+02 0.66521049055E+02 0.67980921965E+02 0.69701417849E+02 0.71444761750E+02
 0.72476880646E+02 0.71915991809E+02 0.69367359653E+02 0.65284129916E+02 0.60796762665E+02
 0.57049815956E+02 0.54515239986E+02 0.52817461973E+02 0.51172152556E+02 0.49019041200E+02
 0.46337559817E+02 0.43510991985E+02 0.41009344580E+02 0.39185455204E+02 0.38232331954E+02
 0.38232143023E+02 0.39185093128E+02 0.41008047203E+02 0.43506655986E+02 0.46330713990E+02
 0.49015438156E+02 0.51177546046E+02 0.52829870544E+02 0.54525746921E+02 0.57051811386E+02
 0.60791861952E+02 0.65278481318E+02 0.69365283846E+02 0.71918699069E+02 0.72484104378E+02
 0.71454472129E+02 0.69709767325E+02 0.69650281152E+02 0.69711821433E+02 0.69770284433E+02
 0.69318223121E+02 0.67950414275E+02 0.65861726983E+02 0.63908670476E+02 0.63108901200E+02
 0.63913821355E+02 0.65865844341E+02 0.67947368301E+02 0.69307738856E+02 0.69757436331E+02
 0.69701417849E+02 0.69642550129E+02 0.69783683177E+02 0.69893136588E+02 0.69368807613E+02
 0.67636253664E+02 0.64607963421E+02 0.60806178457E+02 0.57071342774E+02 0.54043478751E+02
 0.51809943994E+02 0.49979582484E+02 0.48072384940E+02 0.45874422989E+02 0.43513049256E+02
 0.41299615623E+02 0.39537349318E+02 0.38418520569E+02 0.38035559642E+02 0.38415635917E+02
 0.39532916746E+02 0.41294382616E+02 0.43506655986E+02 0.45867513220E+02 0.48068057758E+02
 0.49981078375E+02 0.51816672106E+02 0.54050577542E+02 0.57074154840E+02 0.60804937032E+02
 0.64607409495E+02 0.67640624663E+02 0.69377767035E+02 0.69902906926E+02 0.69791718608E+02
 0.68137193695E+02 0.69792729619E+02 0.71457064664E+02 0.72441219142E+02 0.71983688402E+02
 0.69939753920E+02 0.67168517126E+02 0.65187912932E+02 0.65191362997E+02 0.67176650466E+02
 0.69946687113E+02 0.71983231451E+02 0.72432144830E+02 0.71444761750E+02 0.69783683177E+02
 0.68132000958E+02 0.66722490785E+02 0.65359660242E+02 0.63615155072E+02 0.61171901961E+02
 0.58105698490E+02 0.54857149223E+02 0.51941447830E+02 0.49622656455E+02 0.47803414504E+02
 0.46182118979E+02 0.44508682542E+02 0.42736212973E+02 0.41007041794E+02 0.39533865793E+02
 0.38483708495E+02 0.37943295288E+02 0.37941980105E+02 0.38481235664E+02 0.39532916746E+02
 0.41008047203E+02 0.42736107732E+02 0.44504067497E+02 0.46173745038E+02 0.47796261623E+02
 0.49620848678E+02 0.51944387498E+02 0.54861933067E+02 0.58111890900E+02 0.61181292552E+02
 0.63627095054E+02 0.65369963601E+02 0.66728657139E+02 0.63716391174E+02 0.66730020596E+02
 0.69901102721E+02 0.72482180865E+02 0.73405760934E+02 0.72017810311E+02 0.68817522798E+02
 0.65525506523E+02 0.64133252520E+02 0.65524293128E+02 0.68816673780E+02 0.72017631925E+02
 0.73404066334E+02 0.72476880646E+02 0.69893136588E+02 0.66722490785E+02 0.63710973982E+02
 0.61075895940E+02 0.58661988844E+02 0.56189772204E+02 0.53515185597E+02 0.50765908439E+02
 0.48242874139E+02 0.46191056762E+02 0.44640737992E+02 0.43429030225E+02 0.42342664083E+02
 0.41252250906E+02 0.40164413406E+02 0.39180298613E+02 0.38416329207E+02 0.37944516497E+02
 0.37785679171E+02 0.37941980105E+02 0.38415635917E+02 0.39185093128E+02 0.40173023755E+02
 0.41258661354E+02 0.42341985018E+02 0.43421779877E+02 0.44632040431E+02 0.46186381926E+02
 0.48244677293E+02 0.50773239084E+02 0.53525081826E+02 0.56198945935E+02 0.58668559416E+02
 0.61080616293E+02 0.57187629813E+02 0.61085743836E+02 0.65368060725E+02 0.69372898192E+02
 0.71918832731E+02 0.71875225184E+02 0.69087399443E+02 0.64963266400E+02 0.61941852659E+02
 0.61938423849E+02 0.64954728285E+02 0.69078144779E+02 0.71869270197E+02 0.71915991809E+02
 0.69368807613E+02 0.65359660242E+02 0.61075895940E+02 0.57182058247E+02 0.53834865693E+02
 0.50908439492E+02 0.48230142759E+02 0.45755279415E+02 0.43598489851E+02 0.41915855984E+02
 0.40758706218E+02 0.40032235073E+02 0.39564530839E+02 0.39200607033E+02 0.38854985390E+02
 0.38518816915E+02 0.38232564960E+02 0.38037787938E+02 0.37944516497E+02 0.37943295288E+02
 0.38035559642E+02 0.38232143023E+02 0.38521806171E+02 0.38860797316E+02 0.39206975781E+02
 0.39568405885E+02 0.40031581065E+02 0.40755018069E+02 0.41914031646E+02 0.43602102070E+02
 0.45762070123E+02 0.48234391569E+02 0.50908297523E+02 0.53835012839E+02 0.49624820483E+02
 0.53843519578E+02 0.58670847696E+02 0.63621772632E+02 0.67640859543E+02 0.69372327838E+02
 0.67990164216E+02 0.64136628087E+02 0.60038127710E+02 0.58285897249E+02 0.60032692217E+02
 0.64128686036E+02 0.67983133886E+02 0.69367359653E+02 0.67636253664E+02 0.63615155072E+02
 0.58661988844E+02 0.53834865693E+02 0.49619182971E+02 0.46098012445E+02 0.43171512936E+02
 0.40737829437E+02 0.38791962887E+02 0.37402040191E+02 0.36604374696E+02 0.36333158437E+02
 0.36443436962E+02 0.36775409305E+02 0.37194570638E+02 0.37605517465E+02 0.37957459949E+02
 0.38232564960E+02 0.38416329207E+02 0.38483708495E+02 0.38418520569E+02 0.38232331954E+02
 0.37951786953E+02 0.37597462996E+02 0.37190406463E+02 0.36778116713E+02 0.36450307552E+02
 0.36339504075E+02 0.36608063769E+02 0.37403873193E+02 0.38793042042E+02 0.40738292360E+02
 0.43171850837E+02 0.46100100071E+02 0.42069882066E+02 0.46106823157E+02 0.50913967160E+02
 0.56195194622E+02 0.61178093758E+02 0.64611871256E+02 0.65283854804E+02 0.62963227133E+02
 0.59057743772E+02 0.56098478310E+02 0.56098762900E+02 0.59059173620E+02 0.62965509270E+02
 0.65284129916E+02 0.64607963421E+02 0.61171901961E+02 0.56189772204E+02 0.50908439492E+02
 0.46098012445E+02 0.42058819336E+02 0.38814476557E+02 0.36282519448E+02 0.34401852497E+02
 0.33178267262E+02 0.32629480625E+02 0.32706584615E+02 0.33284466064E+02 0.34209859631E+02
 0.35333430173E+02 0.36509866006E+02 0.37605517465E+02 0.38518816915E+02 0.39180298613E+02
 0.39533865793E+02 0.39537349318E+02 0.39185455204E+02 0.38516825089E+02 0.37595315090E+02
 0.36498769407E+02 0.35328298379E+02 0.34211646584E+02 0.33290593055E+02 0.32714004762E+02
 0.32634621703E+02 0.33178377608E+02 0.34398903672E+02 0.36282863777E+02 0.38821895853E+02
 0.35316557813E+02 0.38822216192E+02 0.43176332762E+02 0.48233014465E+02 0.53519242140E+02
 0.58111538132E+02 0.60809349870E+02 0.60791917731E+02 0.58451400290E+02 0.55564362833E+02
 0.54283435112E+02 0.55574675667E+02 0.58463300982E+02 0.60796762665E+02 0.60806178457E+02
 0.58105698490E+02 0.53515185597E+02 0.48230142759E+02 0.43171512936E+02 0.38814476557E+02
 0.35308276055E+02 0.32633607496E+02 0.30729800177E+02 0.29570987217E+02 0.29157754803E+02
 0.29454825902E+02 0.30361959697E+02 0.31743210832E+02 0.33454330102E+02 0.35333430173E+02
 0.37194570638E+02 0.38854985390E+02 0.40164413406E+02 0.41007041794E+02 0.41299615623E+02
 0.41009344580E+02 0.40167815168E+02 0.38857649607E+02 0.37195175438E+02 0.35332204981E+02
 0.33452891588E+02 0.31743108607E+02 0.30363307916E+02 0.29456430242E+02 0.29158613458E+02
 0.29571669757E+02 0.30732274164E+02 0.32639405275E+02 0.29846253028E+02 0.32634082639E+02
 0.36282999902E+02 0.40739309123E+02 0.45757996973E+02 0.50771595089E+02 0.54865766800E+02
 0.57077127176E+02 0.57046339640E+02 0.55533767155E+02 0.54127272721E+02 0.54132771880E+02
 0.55543813673E+02 0.57049815956E+02 0.57071342774E+02 0.54857149223E+02 0.50765908439E+02
 0.45755279415E+02 0.40737829437E+02 0.36282519448E+02 0.32633607496E+02 0.29843055524E+02
 0.27885001069E+02 0.26730021911E+02 0.26367033162E+02 0.26773194855E+02 0.27880516087E+02
 0.29580545650E+02 0.31743210832E+02 0.34209859631E+02 0.36775409305E+02 0.39200607033E+02
 0.41252250906E+02 0.42736212973E+02 0.43513049256E+02 0.43510991985E+02 0.42734871612E+02
 0.41258734304E+02 0.39213359328E+02 0.36785785206E+02 0.34212816160E+02 0.31741288147E+02
 0.29577817282E+02 0.27878047733E+02 0.26771674243E+02 0.26368891504E+02 0.26735934745E+02
 0.27891421571E+02 0.25884431073E+02 0.27885139311E+02 0.30728961405E+02 0.34401902992E+02
 0.38794253775E+02 0.43602836740E+02 0.48248365963E+02 0.51947899384E+02 0.54051216055E+02
 0.54523287806E+02 0.54100400175E+02 0.53799151532E+02 0.54094974565E+02 0.54515239986E+02
 0.54043478751E+02 0.51941447830E+02 0.48242874139E+02 0.43598489851E+02 0.38791962887E+02
 0.34401852497E+02 0.30729800177E+02 0.27885001069E+02 0.25882367064E+02 0.24705648541E+02
 0.24341758618E+02 0.24779599898E+02 0.25983942024E+02 0.27880516087E+02 0.30361959697E+02
 0.33284466064E+02 0.36443436962E+02 0.39564530839E+02 0.42342664083E+02 0.44508682542E+02
 0.45874422989E+02 0.46337559817E+02 0.45869561335E+02 0.44505311790E+02 0.42346230830E+02
 0.39573572922E+02 0.36451444919E+02 0.33286765653E+02 0.30359637131E+02 0.27878018649E+02
 0.25984370222E+02 0.24782874607E+02 0.24346099847E+02 0.24709377137E+02 0.23503133226E+02
 0.24705607710E+02 0.26732171223E+02 0.29575664206E+02 0.33184376646E+02 0.37406734972E+02
 0.41916257990E+02 0.46188528283E+02 0.49623740432E+02 0.51819571136E+02 0.52831193458E+02
 0.53113968055E+02 0.53107368431E+02 0.52817461973E+02 0.51809943994E+02 0.49622656455E+02
 0.46191056762E+02 0.41915855984E+02 0.37402040191E+02 0.33178267262E+02 0.29570987217E+02
 0.26730021911E+02 0.24705648541E+02 0.23503601763E+02 0.23118730519E+02 0.23548136498E+02
 0.24779599898E+02 0.26773194855E+02 0.29454825902E+02 0.32706584615E+02 0.36333158437E+02
 0.40032235073E+02 0.43429030225E+02 0.46182118979E+02 0.48072384940E+02 0.49019041200E+02
 0.49016742991E+02 0.48066164029E+02 0.46174556659E+02 0.43424183312E+02 0.40032452912E+02
 0.36336697950E+02 0.32709973221E+02 0.29457153485E+02 0.26776292298E+02 0.24784229386E+02
 0.23552253419E+02 0.23120241220E+02 0.22710346399E+02 0.23119182646E+02 0.24343956966E+02
 0.26372323561E+02 0.29165802831E+02 0.32637024573E+02 0.36606961973E+02 0.40754794579E+02
 0.44633904175E+02 0.47799366281E+02 0.49980514799E+02 0.51174812948E+02 0.51540748702E+02
 0.51172152556E+02 0.49979582484E+02 0.47803414504E+02 0.44640737992E+02 0.40758706218E+02
 0.36604374696E+02 0.32629480625E+02 0.29157754803E+02 0.26367033162E+02 0.24341758618E+02
 0.23118730519E+02 0.22710364257E+02 0.23118730519E+02 0.24341758618E+02 0.26367033162E+02
 0.29157754803E+02 0.32629480625E+02 0.36604374696E+02 0.40758706218E+02 0.44640737992E+02
 0.47803414504E+02 0.49979582484E+02 0.51172152556E+02 0.51540748702E+02 0.51174812948E+02
 0.49980514799E+02 0.47799366281E+02 0.44633904175E+02 0.40754794579E+02 0.36606961973E+02
 0.32637024573E+02 0.29165802831E+02 0.26372323561E+02 0.24343956966E+02 0.23119182646E+02
 0.23503133226E+02 0.23120241220E+02 0.23552253419E+02 0.24784229386E+02 0.26776292298E+02
 0.29457153485E+02 0.32709973221E+02 0.36336697950E+02 0.40032452912E+02 0.43424183312E+02
 0.46174556659E+02 0.48066164029E+02 0.49016742991E+02 0.49019041200E+02 0.48072384940E+02
 0.46182118979E+02 0.43429030225E+02 0.40032235073E+02 0.36333158437E+02 0.32706584615E+02
 0.29454825902E+02 0.26773194855E+02 0.24779599898E+02 0.23548136498E+02 0.23118730519E+02
 0.23503601763E+02 0.24705648541E+02 0.26730021911E+02 0.29570987217E+02 0.33178267262E+02
 0.37402040191E+02 0.41915855984E+02 0.46191056762E+02 0.49622656455E+02 0.51809943994E+02
 0.52817461973E+02 0.53107368431E+02 0.53113968055E+02 0.52831193458E+02 0.51819571136E+02
 0.49623740432E+02 0.46188528283E+02 0.41916257990E+02 0.37406734972E+02 0.33184376646E+02
 0.29575664206E+02 0.26732171223E+02 0.24705607710E+02 0.25884431073E+02 0.24709377137E+02
 0.24346099847E+02 0.24782874607E+02 0.25984370222E+02 0.27878018649E+02 0.30359637131E+02
 0.33286765653E+02 0.36451444919E+02 0.39573572922E+02 0.42346230830E+02 0.44505311790E+02
 0.45869561335E+02 0.46337559817E+02 0.45874422989E+02 0.44508682542E+02 0.42342664083E+02
 0.39564530839E+02 0.36443436962E+02 0.33284466064E+02 0.30361959697E+02 0.27880516087E+02
 0.25983942024E+02 0.24779599898E+02 0.24341758618E+02 0.24705648541E+02 0.25882367064E+02
 0.27885001069E+02 0.30729800177E+02 0.34401852497E+02 0.38791962887E+02 0.43598489851E+02
 0.48242874139E+02 0.51941447830E+02 0.54043478751E+02 0.54515239986E+02 0.54094974565E+02
 0.53799151532E+02 0.54100400175E+02 0.54523287806E+02 0.54051216055E+02 0.51947899384E+02
 0.48248365963E+02 0.43602836740E+02 0.38794253775E+02 0.34401902992E+02 0.30728961405E+02
 0.27885139311E+02 0.29846253028E+02 0.27891421571E+02 0.26735934745E+02 0.26368891504E+02
 0.26771674243E+02 0.27878047733E+02 0.29577817282E+02 0.31741288147E+02 0.34212816160E+02
 0.36785785206E+02 0.39213359328E+02 0.41258734304E+02 0.42734871612E+02 0.43510991985E+02
 0.43513049256E+02 0.42736212973E+02 0.41252250906E+02 0.39200607033E+02 0.36775409305E+02
 0.34209859631E+02 0.31743210832E+02 0.29580545650E+02 0.27880516087E+02 0.26773194855E+02
 0.26367033162E+02 0.26730021911E+02 0.27885001069E+02 0.29843055524E+02 0.32633607496E+02
 0.36282519448E+02 0.40737829437E+02 0.45755279415E+02 0.50765908439E+02 0.54857149223E+02
 0.57071342774E+02 0.57049815956E+02 0.55543813673E+02 0.54132771880E+02 0.54127272721E+02
 0.55533767155E+02 0.57046339640E+02 0.57077127176E+02 0.54865766800E+02 0.50771595089E+02
 0.45757996973E+02 0.40739309123E+02 0.36282999902E+02 0.32634082639E+02 0.35316557813E+02
 0.32639405275E+02 0.30732274164E+02 0.29571669757E+02 0.29158613458E+02 0.29456430242E+02
 0.30363307916E+02 0.31743108607E+02 0.33452891588E+02 0.35332204981E+02 0.37195175438E+02
 0.38857649607E+02 0.40167815168E+02 0.41009344580E+02 0.41299615623E+02 0.41007041794E+02
 0.40164413406E+02 0.38854985390E+02 0.37194570638E+02 0.35333430173E+02 0.33454330102E+02
 0.31743210832E+02 0.30361959697E+02 0.29454825902E+02 0.29157754803E+02 0.29570987217E+02
 0.30729800177E+02 0.32633607496E+02 0.35308276055E+02 0.38814476557E+02 0.43171512936E+02
 0.48230142759E+02 0.53515185597E+02 0.58105698490E+02 0.60806178457E+02 0.60796762665E+02
 0.58463300982E+02 0.55574675667E+02 0.54283435112E+02 0.55564362833E+02 0.58451400290E+02
 0.60791917731E+02 0.60809349870E+02 0.58111538132E+02 0.53519242140E+02 0.48233014465E+02
 0.43176332762E+02 0.38822216192E+02 0.42069882066E+02 0.38821895853E+02 0.36282863777E+02
 0.34398903672E+02 0.33178377608E+02 0.32634621703E+02 0.32714004762E+02 0.33290593055E+02
 0.34211646584E+02 0.35328298379E+02 0.36498769407E+02 0.37595315090E+02 0.38516825089E+02
 0.39185455204E+02 0.39537349318E+02 0.39533865793E+02 0.39180298613E+02 0.38518816915E+02
 0.37605517465E+02 0.36509866006E+02 0.35333430173E+02 0.34209859631E+02 0.33284466064E+02
 0.32706584615E+02 0.32629480625E+02 0.33178267262E+02 0.34401852497E+02 0.36282519448E+02
 0.38814476557E+02 0.42058819336E+02 0.46098012445E+02 0.50908439492E+02 0.56189772204E+02
 0.61171901961E+02 0.64607963421E+02 0.65284129916E+02 0.62965509270E+02 0.59059173620E+02
 0.56098762900E+02 0.56098478310E+02 0.59057743772E+02 0.62963227133E+02 0.65283854804E+02
 0.64611871256E+02 0.61178093758E+02 0.56195194622E+02 0.50913967160E+02 0.46106823157E+02
 0.49624820483E+02 0.46100100071E+02 0.43171850837E+02 0.40738292360E+02 0.38793042042E+02
 0.37403873193E+02 0.36608063769E+02 0.36339504075E+02 0.36450307552E+02 0.36778116713E+02
 0.37190406463E+02 0.37597462996E+02 0.37951786953E+02 0.38232331954E+02 0.38418520569E+02
 0.38483708495E+02 0.38416329207E+02 0.38232564960E+02 0.37957459949E+02 0.37605517465E+02
 0.37194570638E+02 0.36775409305E+02 0.36443436962E+02 0.36333158437E+02 0.36604374696E+02
 0.37402040191E+02 0.38791962887E+02 0.40737829437E+02 0.43171512936E+02 0.46098012445E+02
 0.49619182971E+02 0.53834865693E+02 0.58661988844E+02 0.63615155072E+02 0.67636253664E+02
 0.69367359653E+02 0.67983133886E+02 0.64128686036E+02 0.60032692217E+02 0.58285897249E+02
 0.60038127710E+02 0.64136628087E+02 0.67990164216E+02 0.69372327838E+02 0.67640859543E+02
 0.63621772632E+02 0.58670847696E+02 0.53843519578E+02 0.57187629813E+02 0.53835012839E+02
 0.50908297523E+02 0.48234391569E+02 0.45762070123E+02 0.43602102070E+02 0.41914031646E+02
 0.40755018069E+02 0.40031581065E+02 0.39568405885E+02 0.39206975781E+02 0.38860797316E+02
 0.38521806171E+02 0.38232143023E+02 0.38035559642E+02 0.37943295288E+02 0.37944516497E+02
 0.38037787938E+02 0.38232564960E+02 0.38518816915E+02 0.38854985390E+02 0.39200607033E+02
 0.39564530839E+02 0.40032235073E+02 0.40758706218E+02 0.41915855984E+02 0.43598489851E+02
 0.45755279415E+02 0.48230142759E+02 0.50908439492E+02 0.53834865693E+02 0.57182058247E+02
 0.61075895940E+02 0.65359660242E+02 0.69368807613E+02 0.71915991809E+02 0.71869270197E+02
 0.69078144779E+02 0.64954728285E+02 0.61938423849E+02 0.61941852659E+02 0.64963266400E+02
 0.69087399443E+02 0.71875225184E+02 0.71918832731E+02 0.69372898192E+02 0.65368060725E+02
 0.61085743836E+02 0.63716391174E+02 0.61080616293E+02 0.58668559416E+02 0.56198945935E+02
 0.53525081826E+02 0.50773239084E+02 0.48244677293E+02 0.46186381926E+02 0.44632040431E+02
 0.43421779877E+02 0.42341985018E+02 0.41258661354E+02 0.40173023755E+02 0.39185093128E+02
 0.38415635917E+02 0.37941980105E+02 0.37785679171E+02 0.37944516497E+02 0.38416329207E+02
 0.39180298613E+02 0.40164413406E+02 0.41252250906E+02 0.42342664083E+02 0.43429030225E+02
 0.44640737992E+02 0.46191056762E+02 0.48242874139E+02 0.50765908439E+02 0.53515185597E+02
 0.56189772204E+02 0.58661988844E+02 0.61075895940E+02 0.63710973982E+02 0.66722490785E+02
 0.69893136588E+02 0.72476880646E+02 0.73404066334E+02 0.72017631925E+02 0.68816673780E+02
 0.65524293128E+02 0.64133252520E+02 0.65525506523E+02 0.68817522798E+02 0.72017810311E+02
 0.73405760934E+02 0.72482180865E+02 0.69901102721E+02 0.66730020596E+02 0.68137193695E+02
 0.66728657139E+02 0.65369963601E+02 0.63627095054E+02 0.61181292552E+02 0.58111890900E+02
 0.54861933067E+02 0.51944387498E+02 0.49620848678E+02 0.47796261623E+02 0.46173745038E+02
 0.44504067497E+02 0.42736107732E+02 0.41008047203E+02 0.39532916746E+02 0.38481235664E+02
 0.37941980105E+02 0.37943295288E+02 0.38483708495E+02 0.39533865793E+02 0.41007041794E+02
 0.42736212973E+02 0.44508682542E+02 0.46182118979E+02 0.47803414504E+02 0.49622656455E+02
 0.51941447830E+02 0.54857149223E+02 0.58105698490E+02 0.61171901961E+02 0.63615155072E+02