  12  12   0   0
  0.7252118E+01  0.4900670E-09  0.4900670E-09  0.5050980E-09  0.5000000E-15
  1.000000000000000E-004
  CAR 
 B                                       
     25.80298473    -11.98304803  301      6.15818374      1.00000000
    -11.983  0.0000E+00  0.0000E+00
    -11.857  0.0000E+00  0.0000E+00
    -11.731  0.0000E+00  0.0000E+00
    -11.605  0.0000E+00  0.0000E+00
    -11.479  0.0000E+00  0.0000E+00
    -11.353  0.0000E+00  0.0000E+00
    -11.227  0.0000E+00  0.0000E+00
    -11.101  0.0000E+00  0.0000E+00
    -10.975  0.0000E+00  0.0000E+00
    -10.849  0.0000E+00  0.0000E+00
    -10.724  0.0000E+00  0.0000E+00
    -10.598  0.0000E+00  0.0000E+00
    -10.472  0.2592E-10  0.3265E-11
    -10.346  0.1527E-03  0.1924E-04
    -10.220  0.8915E-01  0.1125E-01
    -10.094  0.4527E+00  0.6826E-01
     -9.968  0.7236E+00  0.1594E+00
     -9.842  0.9458E+00  0.2785E+00
     -9.716  0.1357E+01  0.4494E+00
     -9.590  0.1712E+01  0.6650E+00
     -9.464  0.1941E+01  0.9096E+00
     -9.338  0.2744E+01  0.1255E+01
     -9.212  0.3160E+01  0.1653E+01
     -9.086  0.2610E+01  0.1982E+01
     -8.960  0.1430E+00  0.2000E+01
     -8.834  0.3306E-05  0.2000E+01
     -8.708  0.0000E+00  0.2000E+01
     -8.582  0.0000E+00  0.2000E+01
     -8.456  0.0000E+00  0.2000E+01
     -8.330  0.0000E+00  0.2000E+01
     -8.204  0.0000E+00  0.2000E+01
     -8.078  0.0000E+00  0.2000E+01
     -7.953  0.0000E+00  0.2000E+01
     -7.827  0.0000E+00  0.2000E+01
     -7.701  0.0000E+00  0.2000E+01
     -7.575  0.4411E-08  0.2000E+01
     -7.449  0.2051E-02  0.2000E+01
     -7.323  0.1969E+00  0.2025E+01
     -7.197  0.7990E+00  0.2126E+01
     -7.071  0.1842E+01  0.2358E+01
     -6.945  0.2266E+01  0.2643E+01
     -6.819  0.2414E+01  0.2947E+01
     -6.693  0.1486E+01  0.3134E+01
     -6.567  0.1426E+01  0.3314E+01
     -6.441  0.1796E+01  0.3540E+01
     -6.315  0.1657E+01  0.3749E+01
     -6.189  0.1636E+01  0.3955E+01
     -6.063  0.2151E+01  0.4226E+01
     -5.937  0.1708E+01  0.4441E+01
     -5.811  0.1552E+01  0.4636E+01
     -5.685  0.2293E+01  0.4925E+01
     -5.559  0.2273E+01  0.5212E+01
     -5.433  0.2638E+01  0.5544E+01
     -5.308  0.3508E+01  0.5986E+01
     -5.182  0.3230E+01  0.6392E+01
     -5.056  0.2760E+01  0.6740E+01
     -4.930  0.2920E+01  0.7108E+01
     -4.804  0.2526E+01  0.7426E+01
     -4.678  0.1971E+01  0.7674E+01
     -4.552  0.1485E+01  0.7861E+01
     -4.426  0.6447E+00  0.7943E+01
     -4.300  0.3811E+00  0.7991E+01
     -4.174  0.1085E+00  0.8004E+01
     -4.048  0.2080E+00  0.8030E+01
     -3.922  0.3083E+00  0.8069E+01
     -3.796  0.4272E+00  0.8123E+01
     -3.670  0.9734E+00  0.8246E+01
     -3.544  0.1150E+01  0.8391E+01
     -3.418  0.1380E+01  0.8564E+01
     -3.292  0.1346E+01  0.8734E+01
     -3.166  0.1875E+01  0.8970E+01
     -3.040  0.1654E+01  0.9178E+01
     -2.914  0.1745E+01  0.9398E+01
     -2.788  0.2346E+01  0.9694E+01
     -2.662  0.2027E+01  0.9949E+01
     -2.537  0.3281E+01  0.1036E+02
     -2.411  0.2883E+01  0.1073E+02
     -2.285  0.3281E+01  0.1114E+02
     -2.159  0.3065E+01  0.1152E+02
     -2.033  0.2712E+01  0.1187E+02
     -1.907  0.3370E+01  0.1229E+02
     -1.781  0.2198E+01  0.1257E+02
     -1.655  0.2506E+01  0.1288E+02
     -1.529  0.3401E+01  0.1331E+02
     -1.403  0.2749E+01  0.1366E+02
     -1.277  0.2719E+01  0.1400E+02
     -1.151  0.2376E+01  0.1430E+02
     -1.025  0.2798E+01  0.1465E+02
     -0.899  0.3369E+01  0.1508E+02
     -0.773  0.3238E+01  0.1548E+02
     -0.647  0.2089E+01  0.1575E+02
     -0.521  0.2749E+01  0.1609E+02
     -0.395  0.2824E+01  0.1645E+02
     -0.269  0.3123E+01  0.1684E+02
     -0.143  0.2970E+01  0.1722E+02
     -0.017  0.2569E+01  0.1754E+02
      0.108  0.3176E+01  0.1794E+02
      0.234  0.2931E+01  0.1831E+02
      0.360  0.3463E+01  0.1875E+02
      0.486  0.3660E+01  0.1921E+02
      0.612  0.3327E+01  0.1963E+02
      0.738  0.3236E+01  0.2003E+02
      0.864  0.4309E+01  0.2058E+02
      0.990  0.1372E+01  0.2075E+02
      1.116  0.1360E+01  0.2092E+02
      1.242  0.1142E+01  0.2106E+02
      1.368  0.1294E+01  0.2123E+02
      1.494  0.1952E+01  0.2147E+02
      1.620  0.2294E+01  0.2176E+02
      1.746  0.2325E+01  0.2205E+02
      1.872  0.3734E+01  0.2252E+02
      1.998  0.5497E+01  0.2322E+02
      2.124  0.4980E+01  0.2384E+02
      2.250  0.5102E+01  0.2449E+02
      2.376  0.4395E+01  0.2504E+02
      2.502  0.4439E+01  0.2560E+02
      2.628  0.4024E+01  0.2611E+02
      2.754  0.4961E+01  0.2673E+02
      2.879  0.4695E+01  0.2732E+02
      3.005  0.3858E+01  0.2781E+02
      3.131  0.3734E+01  0.2828E+02
      3.257  0.5273E+01  0.2894E+02
      3.383  0.5205E+01  0.2960E+02
      3.509  0.4707E+01  0.3019E+02
      3.635  0.3609E+01  0.3065E+02
      3.761  0.4061E+01  0.3116E+02
      3.887  0.5388E+01  0.3184E+02
      4.013  0.5885E+01  0.3258E+02
      4.139  0.7024E+01  0.3346E+02
      4.265  0.4218E+01  0.3399E+02
      4.391  0.2547E+01  0.3431E+02
      4.517  0.2520E+01  0.3463E+02
      4.643  0.2260E+01  0.3492E+02
      4.769  0.1768E+01  0.3514E+02
      4.895  0.1460E+01  0.3532E+02
      5.021  0.1981E+01  0.3557E+02
      5.147  0.1270E+01  0.3573E+02
      5.273  0.1196E+01  0.3588E+02
      5.399  0.3495E+00  0.3593E+02
      5.524  0.2147E+00  0.3595E+02
      5.650  0.2582E+00  0.3599E+02
      5.776  0.6225E-01  0.3599E+02
      5.902  0.3337E-01  0.3600E+02
      6.028  0.1054E-01  0.3600E+02
      6.154  0.3690E-05  0.3600E+02
      6.280  0.1823E-13  0.3600E+02
      6.406  0.0000E+00  0.3600E+02
      6.532  0.0000E+00  0.3600E+02
      6.658  0.0000E+00  0.3600E+02
      6.784  0.0000E+00  0.3600E+02
      6.910  0.0000E+00  0.3600E+02
      7.036  0.0000E+00  0.3600E+02
      7.162  0.4002E-07  0.3600E+02
      7.288  0.7207E-02  0.3600E+02
      7.414  0.5457E+00  0.3607E+02
      7.540  0.1834E+01  0.3630E+02
      7.666  0.3503E+01  0.3674E+02
      7.792  0.2833E+01  0.3710E+02
      7.918  0.2110E+01  0.3736E+02
      8.044  0.1742E+01  0.3758E+02
      8.170  0.1268E+01  0.3774E+02
      8.295  0.1283E+01  0.3791E+02
      8.421  0.1243E+01  0.3806E+02
      8.547  0.1407E+01  0.3824E+02
      8.673  0.1395E+01  0.3841E+02
      8.799  0.2291E+01  0.3870E+02
      8.925  0.3506E+01  0.3914E+02
      9.051  0.4385E+01  0.3970E+02
      9.177  0.3882E+01  0.4019E+02
      9.303  0.2894E+01  0.4055E+02
      9.429  0.2835E+01  0.4091E+02
      9.555  0.2510E+01  0.4122E+02
      9.681  0.2030E+01  0.4148E+02
      9.807  0.3334E+01  0.4190E+02
      9.933  0.3591E+01  0.4235E+02
     10.059  0.3058E+01  0.4274E+02
     10.185  0.1848E+01  0.4297E+02
     10.311  0.2569E+01  0.4329E+02
     10.437  0.2410E+01  0.4360E+02
     10.563  0.2428E+01  0.4390E+02
     10.689  0.2513E+01  0.4422E+02
     10.815  0.2503E+01  0.4453E+02
     10.940  0.4336E+01  0.4508E+02
     11.066  0.4661E+01  0.4567E+02
     11.192  0.3686E+01  0.4613E+02
     11.318  0.2952E+01  0.4650E+02
     11.444  0.3654E+01  0.4696E+02
     11.570  0.3406E+01  0.4739E+02
     11.696  0.3116E+01  0.4779E+02
     11.822  0.2758E+01  0.4813E+02
     11.948  0.2620E+01  0.4846E+02
     12.074  0.2568E+01  0.4879E+02
     12.200  0.2344E+01  0.4908E+02
     12.326  0.2776E+01  0.4943E+02
     12.452  0.2239E+01  0.4971E+02
     12.578  0.3571E+01  0.5016E+02
     12.704  0.2600E+01  0.5049E+02
     12.830  0.2766E+01  0.5084E+02
     12.956  0.3453E+01  0.5127E+02
     13.082  0.5032E+01  0.5191E+02
     13.208  0.3685E+01  0.5237E+02
     13.334  0.3055E+01  0.5276E+02
     13.460  0.4065E+01  0.5327E+02
     13.586  0.4691E+01  0.5386E+02
     13.711  0.3946E+01  0.5436E+02
     13.837  0.3334E+01  0.5478E+02
     13.963  0.3257E+01  0.5519E+02
     14.089  0.2599E+01  0.5551E+02
     14.215  0.2174E+01  0.5579E+02
     14.341  0.1753E+01  0.5601E+02
     14.467  0.1863E+01  0.5624E+02
     14.593  0.1647E+01  0.5645E+02
     14.719  0.2334E+01  0.5674E+02
     14.845  0.2470E+01  0.5706E+02
     14.971  0.3389E+01  0.5748E+02
     15.097  0.3619E+01  0.5794E+02
     15.223  0.3799E+01  0.5842E+02
     15.349  0.4667E+01  0.5900E+02
     15.475  0.3802E+01  0.5948E+02
     15.601  0.5091E+01  0.6012E+02
     15.727  0.4803E+01  0.6073E+02
     15.853  0.5064E+01  0.6137E+02
     15.979  0.4231E+01  0.6190E+02
     16.105  0.4274E+01  0.6244E+02
     16.231  0.4841E+01  0.6305E+02
     16.356  0.4878E+01  0.6366E+02
     16.482  0.5408E+01  0.6434E+02
     16.608  0.4281E+01  0.6488E+02
     16.734  0.4227E+01  0.6542E+02
     16.860  0.3681E+01  0.6588E+02
     16.986  0.3701E+01  0.6635E+02
     17.112  0.3758E+01  0.6682E+02
     17.238  0.4942E+01  0.6744E+02
     17.364  0.5189E+01  0.6809E+02
     17.490  0.4090E+01  0.6861E+02
     17.616  0.4313E+01  0.6915E+02
     17.742  0.3870E+01  0.6964E+02
     17.868  0.5594E+01  0.7035E+02
     17.994  0.5563E+01  0.7105E+02
     18.120  0.4455E+01  0.7161E+02
     18.246  0.3943E+01  0.7210E+02
     18.372  0.4147E+01  0.7263E+02
     18.498  0.4950E+01  0.7325E+02
     18.624  0.4090E+01  0.7376E+02
     18.750  0.4316E+01  0.7431E+02
     18.876  0.4608E+01  0.7489E+02
     19.001  0.5144E+01  0.7554E+02
     19.127  0.5848E+01  0.7627E+02
     19.253  0.4227E+01  0.7681E+02
     19.379  0.5135E+01  0.7745E+02
     19.505  0.5302E+01  0.7812E+02
     19.631  0.5129E+01  0.7877E+02
     19.757  0.5077E+01  0.7941E+02
     19.883  0.4257E+01  0.7994E+02
     20.009  0.4809E+01  0.8055E+02
     20.135  0.5104E+01  0.8119E+02
     20.261  0.4641E+01  0.8177E+02
     20.387  0.5579E+01  0.8248E+02
     20.513  0.4713E+01  0.8307E+02
     20.639  0.4565E+01  0.8365E+02
     20.765  0.5677E+01  0.8436E+02
     20.891  0.5696E+01  0.8508E+02
     21.017  0.4877E+01  0.8569E+02
     21.143  0.3256E+01  0.8610E+02
     21.269  0.3656E+01  0.8656E+02
     21.395  0.3332E+01  0.8698E+02
     21.521  0.2354E+01  0.8728E+02
     21.647  0.1814E+01  0.8751E+02
     21.772  0.2906E+01  0.8787E+02
     21.898  0.2337E+01  0.8817E+02
     22.024  0.3188E+01  0.8857E+02
     22.150  0.3726E+01  0.8904E+02
     22.276  0.3968E+01  0.8954E+02
     22.402  0.3370E+01  0.8996E+02
     22.528  0.3963E+01  0.9046E+02
     22.654  0.4067E+01  0.9098E+02
     22.780  0.5307E+01  0.9164E+02
     22.906  0.4581E+01  0.9222E+02
     23.032  0.4087E+01  0.9274E+02
     23.158  0.3475E+01  0.9317E+02
     23.284  0.4262E+01  0.9371E+02
     23.410  0.4110E+01  0.9423E+02
     23.536  0.4298E+01  0.9477E+02
     23.662  0.4118E+01  0.9529E+02
     23.788  0.2499E+01  0.9560E+02
     23.914  0.1803E+01  0.9583E+02
     24.040  0.9748E+00  0.9595E+02
     24.166  0.3777E+00  0.9600E+02
     24.292  0.1759E-02  0.9600E+02
     24.417  0.3383E-09  0.9600E+02
     24.543  0.0000E+00  0.9600E+02
     24.669  0.0000E+00  0.9600E+02
     24.795  0.0000E+00  0.9600E+02
     24.921  0.0000E+00  0.9600E+02
     25.047  0.0000E+00  0.9600E+02
     25.173  0.0000E+00  0.9600E+02
     25.299  0.0000E+00  0.9600E+02
     25.425  0.0000E+00  0.9600E+02
     25.551  0.0000E+00  0.9600E+02
     25.677  0.0000E+00  0.9600E+02
     25.803  0.0000E+00  0.9600E+02
