<?xml version="1.0" encoding="ISO-8859-1"?>
<modeling>
 <generator>
  <i name="program" type="string">vasp </i>
  <i name="version" type="string">6.4.3  </i>
  <i name="subversion" type="string">19Mar24 (build Jun 26 2024 13:02:28) complex                          parallel </i>
  <i name="platform" type="string">LinuxIFC </i>
  <i name="date" type="string">2025 08 08 </i>
  <i name="time" type="string">18:59:50 </i>
 </generator>
 <incar>
  <i type="string" name="SYSTEM">B</i>
  <i type="int" name="IBRION">    -1</i>
  <i type="int" name="ISYM">     2</i>
  <i name="ENCUT">    414.19820000</i>
  <i type="int" name="ISMEAR">     0</i>
  <i name="SIGMA">      0.05000000</i>
  <i type="logical" name="LWAVE"> T  </i>
  <i type="logical" name="LCHARG"> T  </i>
 </incar>
 <primitive_cell>
  <structure name="primitive_cell" >
   <crystal>
    <varray name="basis" >
     <v>       4.28537843       0.00000000       2.37741417 </v>
     <v>      -1.48322609       4.02051100      -2.37741417 </v>
     <v>       0.00000000       0.00000000       5.05098000 </v>
    </varray>
    <i name="volume">     87.02541100 </i>
    <varray name="rec_basis" >
     <v>       0.23335162       0.08608687       0.00000000 </v>
     <v>       0.00000000       0.24872460       0.00000000 </v>
     <v>      -0.10983481       0.07655094       0.19798138 </v>
    </varray>
   </crystal>
   <varray name="positions" >
    <v>       0.98969000       0.01031000       0.67465000 </v>
    <v>       0.01031000       0.98969000       0.32535000 </v>
    <v>       0.98969000       0.65404000       0.67465000 </v>
    <v>       0.01031000       0.34596000       0.32535000 </v>
    <v>       0.34596000       0.01031000       0.67465000 </v>
    <v>       0.65404000       0.98969000       0.32535000 </v>
    <v>       0.77885000       0.22115000       0.07274000 </v>
    <v>       0.22115000       0.77885000       0.92726000 </v>
    <v>       0.77885000       0.63043000       0.07274000 </v>
    <v>       0.22115000       0.36957000       0.92726000 </v>
    <v>       0.36957000       0.22115000       0.07274000 </v>
    <v>       0.63043000       0.77885000       0.92726000 </v>
   </varray>
  </structure>
  <varray name="primitive_index" >
   <v type="int" >        1 </v>
   <v type="int" >        2 </v>
   <v type="int" >        3 </v>
   <v type="int" >        4 </v>
   <v type="int" >        5 </v>
   <v type="int" >        6 </v>
   <v type="int" >        7 </v>
   <v type="int" >        8 </v>
   <v type="int" >        9 </v>
   <v type="int" >       10 </v>
   <v type="int" >       11 </v>
   <v type="int" >       12 </v>
  </varray>
 </primitive_cell>
 <kpoints>
  <generation param="Gamma">
   <v type="int" name="divisions">      12       12       12 </v>
   <v name="usershift">      0.00000000       0.00000000       0.00000000 </v>
   <v name="genvec1">      0.08333333      -0.00000000       0.00000000 </v>
   <v name="genvec2">      0.00000000       0.08333333       0.00000000 </v>
   <v name="genvec3">     -0.00000000       0.00000000       0.08333333 </v>
   <v name="shift">      0.00000000       0.00000000       0.00000000 </v>
  </generation>
  <varray name="kpointlist" >
   <v>       0.00000000       0.00000000       0.00000000 </v>
   <v>       0.08333333      -0.00000000       0.00000000 </v>
   <v>      -0.08333333       0.08333333      -0.08333333 </v>
   <v>       0.16666667      -0.00000000       0.00000000 </v>
   <v>      -0.16666667       0.16666667      -0.16666667 </v>
   <v>       0.25000000      -0.00000000       0.00000000 </v>
   <v>      -0.25000000       0.25000000      -0.25000000 </v>
   <v>       0.33333333      -0.00000000       0.00000000 </v>
   <v>      -0.33333333       0.33333333      -0.33333333 </v>
   <v>       0.41666667      -0.00000000       0.00000000 </v>
   <v>      -0.41666667       0.41666667      -0.41666667 </v>
   <v>       0.50000000      -0.00000000       0.00000000 </v>
   <v>       0.50000000       0.50000000       0.50000000 </v>
   <v>       0.08333333       0.08333333       0.00000000 </v>
   <v>      -0.16666667       0.08333333      -0.08333333 </v>
   <v>       0.16666667       0.08333333       0.00000000 </v>
   <v>      -0.25000000       0.08333333      -0.08333333 </v>
   <v>      -0.25000000       0.16666667      -0.16666667 </v>
   <v>       0.25000000       0.08333333       0.00000000 </v>
   <v>      -0.33333333       0.08333333      -0.08333333 </v>
   <v>      -0.33333333       0.25000000      -0.25000000 </v>
   <v>       0.33333333       0.08333333       0.00000000 </v>
   <v>      -0.41666667       0.08333333      -0.08333333 </v>
   <v>      -0.41666667       0.33333333      -0.33333333 </v>
   <v>       0.41666667       0.08333333       0.00000000 </v>
   <v>       0.50000000       0.08333333      -0.08333333 </v>
   <v>       0.50000000       0.41666667      -0.41666667 </v>
   <v>       0.50000000       0.08333333       0.00000000 </v>
   <v>       0.41666667       0.08333333      -0.08333333 </v>
   <v>       0.41666667       0.50000000       0.50000000 </v>
   <v>      -0.41666667       0.08333333       0.00000000 </v>
   <v>       0.33333333       0.08333333      -0.08333333 </v>
   <v>       0.33333333      -0.41666667       0.41666667 </v>
   <v>      -0.33333333       0.08333333       0.00000000 </v>
   <v>       0.25000000       0.08333333      -0.08333333 </v>
   <v>       0.25000000      -0.33333333       0.33333333 </v>
   <v>      -0.25000000       0.08333333       0.00000000 </v>
   <v>       0.16666667       0.08333333      -0.08333333 </v>
   <v>       0.16666667      -0.25000000       0.25000000 </v>
   <v>      -0.16666667       0.08333333       0.00000000 </v>
   <v>       0.08333333       0.08333333      -0.08333333 </v>
   <v>       0.08333333      -0.16666667       0.16666667 </v>
   <v>      -0.08333333       0.08333333       0.00000000 </v>
   <v>       0.00000000       0.08333333      -0.08333333 </v>
   <v>       0.16666667       0.16666667       0.00000000 </v>
   <v>      -0.33333333       0.16666667      -0.16666667 </v>
   <v>       0.25000000       0.16666667       0.00000000 </v>
   <v>      -0.41666667       0.16666667      -0.16666667 </v>
   <v>      -0.41666667       0.25000000      -0.25000000 </v>
   <v>       0.33333333       0.16666667       0.00000000 </v>
   <v>       0.50000000       0.16666667      -0.16666667 </v>
   <v>       0.50000000       0.33333333      -0.33333333 </v>
   <v>       0.41666667       0.16666667       0.00000000 </v>
   <v>       0.41666667       0.16666667      -0.16666667 </v>
   <v>       0.41666667       0.41666667      -0.41666667 </v>
   <v>       0.50000000       0.16666667       0.00000000 </v>
   <v>       0.33333333       0.16666667      -0.16666667 </v>
   <v>       0.33333333       0.50000000       0.50000000 </v>
   <v>      -0.41666667       0.16666667       0.00000000 </v>
   <v>       0.25000000       0.16666667      -0.16666667 </v>
   <v>       0.25000000      -0.41666667       0.41666667 </v>
   <v>      -0.33333333       0.16666667       0.00000000 </v>
   <v>       0.16666667       0.16666667      -0.16666667 </v>
   <v>       0.16666667      -0.33333333       0.33333333 </v>
   <v>      -0.25000000       0.16666667       0.00000000 </v>
   <v>       0.08333333       0.16666667      -0.16666667 </v>
   <v>       0.08333333      -0.25000000       0.25000000 </v>
   <v>      -0.16666667       0.16666667       0.00000000 </v>
   <v>      -0.00000000       0.16666667      -0.16666667 </v>
   <v>       0.25000000       0.25000000       0.00000000 </v>
   <v>       0.50000000       0.25000000      -0.25000000 </v>
   <v>       0.33333333       0.25000000       0.00000000 </v>
   <v>       0.41666667       0.25000000      -0.25000000 </v>
   <v>       0.41666667       0.33333333      -0.33333333 </v>
   <v>       0.41666667       0.25000000       0.00000000 </v>
   <v>       0.33333333       0.25000000      -0.25000000 </v>
   <v>       0.33333333       0.41666667      -0.41666667 </v>
   <v>       0.50000000       0.25000000       0.00000000 </v>
   <v>       0.25000000       0.25000000      -0.25000000 </v>
   <v>       0.25000000       0.50000000       0.50000000 </v>
   <v>      -0.41666667       0.25000000       0.00000000 </v>
   <v>       0.16666667       0.25000000      -0.25000000 </v>
   <v>       0.16666667      -0.41666667       0.41666667 </v>
   <v>      -0.33333333       0.25000000       0.00000000 </v>
   <v>       0.08333333       0.25000000      -0.25000000 </v>
   <v>       0.08333333      -0.33333333       0.33333333 </v>
   <v>      -0.25000000       0.25000000       0.00000000 </v>
   <v>      -0.00000000       0.25000000      -0.25000000 </v>
   <v>       0.33333333       0.33333333       0.00000000 </v>
   <v>       0.33333333       0.33333333      -0.33333333 </v>
   <v>       0.41666667       0.33333333       0.00000000 </v>
   <v>       0.25000000       0.33333333      -0.33333333 </v>
   <v>       0.25000000       0.41666667      -0.41666667 </v>
   <v>       0.50000000       0.33333333       0.00000000 </v>
   <v>       0.16666667       0.33333333      -0.33333333 </v>
   <v>       0.16666667       0.50000000       0.50000000 </v>
   <v>      -0.41666667       0.33333333       0.00000000 </v>
   <v>       0.08333333       0.33333333      -0.33333333 </v>
   <v>       0.08333333      -0.41666667       0.41666667 </v>
   <v>      -0.33333333       0.33333333       0.00000000 </v>
   <v>       0.00000000       0.33333333      -0.33333333 </v>
   <v>       0.41666667       0.41666667       0.00000000 </v>
   <v>       0.16666667       0.41666667      -0.41666667 </v>
   <v>       0.50000000       0.41666667       0.00000000 </v>
   <v>       0.08333333       0.41666667      -0.41666667 </v>
   <v>       0.08333333       0.50000000       0.50000000 </v>
   <v>      -0.41666667       0.41666667       0.00000000 </v>
   <v>      -0.00000000       0.41666667      -0.41666667 </v>
   <v>       0.50000000       0.50000000       0.00000000 </v>
   <v>       0.00000000       0.50000000       0.50000000 </v>
   <v>      -0.00000000       0.00000000       0.08333333 </v>
   <v>       0.16666667       0.00000000       0.08333333 </v>
   <v>      -0.16666667       0.16666667      -0.08333333 </v>
   <v>       0.25000000       0.00000000       0.08333333 </v>
   <v>      -0.25000000       0.25000000      -0.16666667 </v>
   <v>       0.33333333      -0.00000000       0.08333333 </v>
   <v>      -0.33333333       0.33333333      -0.25000000 </v>
   <v>       0.41666667      -0.00000000       0.08333333 </v>
   <v>      -0.41666667       0.41666667      -0.33333333 </v>
   <v>       0.50000000      -0.00000000       0.08333333 </v>
   <v>       0.50000000       0.50000000      -0.41666667 </v>
   <v>      -0.41666667       0.00000000       0.08333333 </v>
   <v>       0.41666667      -0.41666667       0.50000000 </v>
   <v>      -0.33333333       0.00000000       0.08333333 </v>
   <v>       0.33333333      -0.33333333       0.41666667 </v>
   <v>      -0.25000000       0.00000000       0.08333333 </v>
   <v>       0.25000000      -0.25000000       0.33333333 </v>
   <v>      -0.16666667       0.00000000       0.08333333 </v>
   <v>       0.16666667      -0.16666667       0.25000000 </v>
   <v>      -0.08333333       0.00000000       0.08333333 </v>
   <v>       0.08333333      -0.08333333       0.16666667 </v>
   <v>       0.16666667       0.08333333       0.08333333 </v>
   <v>      -0.25000000       0.08333333      -0.16666667 </v>
   <v>      -0.25000000       0.16666667      -0.08333333 </v>
   <v>       0.25000000       0.08333333       0.08333333 </v>
   <v>      -0.33333333       0.08333333      -0.16666667 </v>
   <v>      -0.33333333       0.25000000      -0.16666667 </v>
   <v>       0.33333333       0.08333333       0.08333333 </v>
   <v>      -0.41666667       0.08333333      -0.16666667 </v>
   <v>      -0.41666667       0.33333333      -0.25000000 </v>
   <v>       0.41666667       0.08333333       0.08333333 </v>
   <v>       0.50000000       0.08333333      -0.16666667 </v>
   <v>       0.50000000       0.41666667      -0.33333333 </v>
   <v>       0.50000000       0.08333333       0.08333333 </v>
   <v>       0.41666667       0.08333333      -0.16666667 </v>
   <v>       0.41666667       0.50000000      -0.41666667 </v>
   <v>      -0.41666667       0.08333333       0.08333333 </v>
   <v>       0.33333333       0.08333333      -0.16666667 </v>
   <v>       0.33333333      -0.41666667       0.50000000 </v>
   <v>      -0.33333333       0.08333333       0.08333333 </v>
   <v>       0.25000000       0.08333333      -0.16666667 </v>
   <v>       0.25000000      -0.33333333       0.41666667 </v>
   <v>      -0.25000000       0.08333333       0.08333333 </v>
   <v>       0.16666667       0.08333333      -0.16666667 </v>
   <v>       0.16666667      -0.25000000       0.33333333 </v>
   <v>      -0.16666667       0.08333333       0.08333333 </v>
   <v>       0.08333333       0.08333333      -0.16666667 </v>
   <v>       0.08333333      -0.16666667       0.25000000 </v>
   <v>      -0.08333333       0.08333333       0.08333333 </v>
   <v>       0.00000000       0.08333333      -0.16666667 </v>
   <v>       0.16666667       0.16666667       0.08333333 </v>
   <v>      -0.33333333       0.16666667      -0.25000000 </v>
   <v>      -0.33333333       0.16666667      -0.08333333 </v>
   <v>       0.25000000       0.16666667       0.08333333 </v>
   <v>      -0.41666667       0.16666667      -0.25000000 </v>
   <v>      -0.41666667       0.25000000      -0.16666667 </v>
   <v>       0.33333333       0.16666667       0.08333333 </v>
   <v>       0.50000000       0.16666667      -0.25000000 </v>
   <v>       0.50000000       0.33333333      -0.25000000 </v>
   <v>       0.41666667       0.16666667       0.08333333 </v>
   <v>       0.41666667       0.16666667      -0.25000000 </v>
   <v>       0.41666667       0.41666667      -0.33333333 </v>
   <v>       0.50000000       0.16666667       0.08333333 </v>
   <v>       0.33333333       0.16666667      -0.25000000 </v>
   <v>       0.33333333       0.50000000      -0.41666667 </v>
   <v>      -0.41666667       0.16666667       0.08333333 </v>
   <v>       0.25000000       0.16666667      -0.25000000 </v>
   <v>       0.25000000      -0.41666667       0.50000000 </v>
   <v>      -0.33333333       0.16666667       0.08333333 </v>
   <v>       0.16666667       0.16666667      -0.25000000 </v>
   <v>       0.16666667      -0.33333333       0.41666667 </v>
   <v>      -0.25000000       0.16666667       0.08333333 </v>
   <v>       0.08333333       0.16666667      -0.25000000 </v>
   <v>       0.08333333      -0.25000000       0.33333333 </v>
   <v>      -0.16666667       0.16666667       0.08333333 </v>
   <v>      -0.00000000       0.16666667      -0.25000000 </v>
   <v>       0.16666667       0.25000000       0.08333333 </v>
   <v>      -0.41666667       0.25000000      -0.33333333 </v>
   <v>      -0.41666667       0.16666667      -0.08333333 </v>
   <v>       0.25000000       0.25000000       0.08333333 </v>
   <v>       0.50000000       0.25000000      -0.33333333 </v>
   <v>       0.50000000       0.25000000      -0.16666667 </v>
   <v>       0.33333333       0.25000000       0.08333333 </v>
   <v>       0.41666667       0.25000000      -0.33333333 </v>
   <v>       0.41666667       0.33333333      -0.25000000 </v>
   <v>       0.41666667       0.25000000       0.08333333 </v>
   <v>       0.33333333       0.25000000      -0.33333333 </v>
   <v>       0.33333333       0.41666667      -0.33333333 </v>
   <v>       0.50000000       0.25000000       0.08333333 </v>
   <v>       0.25000000       0.25000000      -0.33333333 </v>
   <v>       0.25000000       0.50000000      -0.41666667 </v>
   <v>      -0.41666667       0.25000000       0.08333333 </v>
   <v>       0.16666667       0.25000000      -0.33333333 </v>
   <v>       0.16666667      -0.41666667       0.50000000 </v>
   <v>      -0.33333333       0.25000000       0.08333333 </v>
   <v>       0.08333333       0.25000000      -0.33333333 </v>
   <v>       0.08333333      -0.33333333       0.41666667 </v>
   <v>      -0.25000000       0.25000000       0.08333333 </v>
   <v>       0.00000000       0.25000000      -0.33333333 </v>
   <v>       0.16666667       0.33333333       0.08333333 </v>
   <v>       0.50000000       0.33333333      -0.41666667 </v>
   <v>       0.50000000       0.16666667      -0.08333333 </v>
   <v>       0.25000000       0.33333333       0.08333333 </v>
   <v>       0.41666667       0.33333333      -0.41666667 </v>
   <v>       0.41666667       0.25000000      -0.16666667 </v>
   <v>       0.33333333       0.33333333       0.08333333 </v>
   <v>       0.33333333       0.33333333      -0.41666667 </v>
   <v>       0.33333333       0.33333333      -0.25000000 </v>
   <v>       0.41666667       0.33333333       0.08333333 </v>
   <v>       0.25000000       0.33333333      -0.41666667 </v>
   <v>       0.25000000       0.41666667      -0.33333333 </v>
   <v>       0.50000000       0.33333333       0.08333333 </v>
   <v>       0.16666667       0.33333333      -0.41666667 </v>
   <v>       0.16666667       0.50000000      -0.41666667 </v>
   <v>      -0.41666667       0.33333333       0.08333333 </v>
   <v>       0.08333333       0.33333333      -0.41666667 </v>
   <v>       0.08333333      -0.41666667       0.50000000 </v>
   <v>      -0.33333333       0.33333333       0.08333333 </v>
   <v>       0.00000000       0.33333333      -0.41666667 </v>
   <v>       0.16666667       0.41666667       0.08333333 </v>
   <v>       0.41666667       0.41666667       0.50000000 </v>
   <v>       0.25000000       0.41666667       0.08333333 </v>
   <v>       0.33333333       0.41666667       0.50000000 </v>
   <v>       0.33333333       0.25000000      -0.16666667 </v>
   <v>       0.33333333       0.41666667       0.08333333 </v>
   <v>       0.25000000       0.41666667       0.50000000 </v>
   <v>       0.25000000       0.33333333      -0.25000000 </v>
   <v>       0.41666667       0.41666667       0.08333333 </v>
   <v>       0.16666667       0.41666667       0.50000000 </v>
   <v>       0.16666667       0.41666667      -0.33333333 </v>
   <v>       0.50000000       0.41666667       0.08333333 </v>
   <v>       0.08333333       0.41666667       0.50000000 </v>
   <v>       0.08333333       0.50000000      -0.41666667 </v>
   <v>      -0.41666667       0.41666667       0.08333333 </v>
   <v>       0.00000000       0.41666667       0.50000000 </v>
   <v>       0.25000000       0.50000000       0.08333333 </v>
   <v>       0.25000000       0.50000000       0.41666667 </v>
   <v>       0.25000000       0.25000000      -0.16666667 </v>
   <v>       0.33333333       0.50000000       0.08333333 </v>
   <v>       0.16666667       0.50000000       0.41666667 </v>
   <v>       0.16666667       0.33333333      -0.25000000 </v>
   <v>       0.41666667       0.50000000       0.08333333 </v>
   <v>       0.08333333       0.50000000       0.41666667 </v>
   <v>       0.08333333       0.41666667      -0.33333333 </v>
   <v>       0.50000000       0.50000000       0.08333333 </v>
   <v>       0.00000000       0.50000000       0.41666667 </v>
   <v>       0.25000000      -0.41666667       0.08333333 </v>
   <v>       0.16666667      -0.41666667       0.33333333 </v>
   <v>       0.16666667       0.25000000      -0.16666667 </v>
   <v>       0.33333333      -0.41666667       0.08333333 </v>
   <v>       0.08333333      -0.41666667       0.33333333 </v>
   <v>       0.08333333       0.33333333      -0.25000000 </v>
   <v>       0.41666667      -0.41666667       0.08333333 </v>
   <v>       0.00000000      -0.41666667       0.33333333 </v>
   <v>       0.25000000      -0.33333333       0.08333333 </v>
   <v>       0.08333333      -0.33333333       0.25000000 </v>
   <v>       0.08333333       0.25000000      -0.16666667 </v>
   <v>       0.33333333      -0.33333333       0.08333333 </v>
   <v>       0.00000000      -0.33333333       0.25000000 </v>
   <v>       0.25000000      -0.25000000       0.08333333 </v>
   <v>       0.00000000      -0.25000000       0.16666667 </v>
   <v>       0.00000000      -0.00000000       0.16666667 </v>
   <v>       0.33333333      -0.00000000       0.16666667 </v>
   <v>      -0.33333333       0.33333333      -0.16666667 </v>
   <v>       0.41666667      -0.00000000       0.16666667 </v>
   <v>      -0.41666667       0.41666667      -0.25000000 </v>
   <v>       0.50000000      -0.00000000       0.16666667 </v>
   <v>       0.50000000       0.50000000      -0.33333333 </v>
   <v>      -0.41666667       0.00000000       0.16666667 </v>
   <v>       0.41666667      -0.41666667      -0.41666667 </v>
   <v>      -0.33333333       0.00000000       0.16666667 </v>
   <v>       0.33333333      -0.33333333       0.50000000 </v>
   <v>      -0.25000000      -0.00000000       0.16666667 </v>
   <v>       0.25000000      -0.25000000       0.41666667 </v>
   <v>      -0.16666667      -0.00000000       0.16666667 </v>
   <v>       0.16666667      -0.16666667       0.33333333 </v>
   <v>      -0.08333333      -0.00000000       0.16666667 </v>
   <v>       0.08333333      -0.08333333       0.25000000 </v>
   <v>       0.33333333       0.08333333       0.16666667 </v>
   <v>      -0.41666667       0.08333333      -0.25000000 </v>
   <v>      -0.41666667       0.33333333      -0.16666667 </v>
   <v>       0.41666667       0.08333333       0.16666667 </v>
   <v>       0.50000000       0.08333333      -0.25000000 </v>
   <v>       0.50000000       0.41666667      -0.25000000 </v>
   <v>       0.50000000       0.08333333       0.16666667 </v>
   <v>       0.41666667       0.08333333      -0.25000000 </v>
   <v>       0.41666667       0.50000000      -0.33333333 </v>
   <v>      -0.41666667       0.08333333       0.16666667 </v>
   <v>       0.33333333       0.08333333      -0.25000000 </v>
   <v>       0.33333333      -0.41666667      -0.41666667 </v>
   <v>      -0.33333333       0.08333333       0.16666667 </v>
   <v>       0.25000000       0.08333333      -0.25000000 </v>
   <v>       0.25000000      -0.33333333       0.50000000 </v>
   <v>      -0.25000000       0.08333333       0.16666667 </v>
   <v>       0.16666667       0.08333333      -0.25000000 </v>
   <v>       0.16666667      -0.25000000       0.41666667 </v>
   <v>      -0.16666667       0.08333333       0.16666667 </v>
   <v>       0.08333333       0.08333333      -0.25000000 </v>
   <v>       0.08333333      -0.16666667       0.33333333 </v>
   <v>      -0.08333333       0.08333333       0.16666667 </v>
   <v>      -0.00000000       0.08333333      -0.25000000 </v>
   <v>       0.33333333       0.16666667       0.16666667 </v>
   <v>       0.50000000       0.16666667      -0.33333333 </v>
   <v>       0.50000000       0.33333333      -0.16666667 </v>
   <v>       0.41666667       0.16666667       0.16666667 </v>
   <v>       0.41666667       0.16666667      -0.33333333 </v>
   <v>       0.41666667       0.41666667      -0.25000000 </v>
   <v>       0.50000000       0.16666667       0.16666667 </v>
   <v>       0.33333333       0.16666667      -0.33333333 </v>
   <v>       0.33333333       0.50000000      -0.33333333 </v>
   <v>      -0.41666667       0.16666667       0.16666667 </v>
   <v>       0.25000000       0.16666667      -0.33333333 </v>
   <v>       0.25000000      -0.41666667      -0.41666667 </v>
   <v>      -0.33333333       0.16666667       0.16666667 </v>
   <v>       0.16666667       0.16666667      -0.33333333 </v>
   <v>       0.16666667      -0.33333333       0.50000000 </v>
   <v>      -0.25000000       0.16666667       0.16666667 </v>
   <v>       0.08333333       0.16666667      -0.33333333 </v>
   <v>       0.08333333      -0.25000000       0.41666667 </v>
   <v>      -0.16666667       0.16666667       0.16666667 </v>
   <v>      -0.00000000       0.16666667      -0.33333333 </v>
   <v>       0.33333333       0.25000000       0.16666667 </v>
   <v>       0.41666667       0.25000000      -0.41666667 </v>
   <v>       0.41666667       0.33333333      -0.16666667 </v>
   <v>       0.41666667       0.25000000       0.16666667 </v>
   <v>       0.33333333       0.25000000      -0.41666667 </v>
   <v>       0.33333333       0.41666667      -0.25000000 </v>
   <v>       0.50000000       0.25000000       0.16666667 </v>
   <v>       0.25000000       0.25000000      -0.41666667 </v>
   <v>       0.25000000       0.50000000      -0.33333333 </v>
   <v>      -0.41666667       0.25000000       0.16666667 </v>
   <v>       0.16666667       0.25000000      -0.41666667 </v>
   <v>       0.16666667      -0.41666667      -0.41666667 </v>
   <v>      -0.33333333       0.25000000       0.16666667 </v>
   <v>       0.08333333       0.25000000      -0.41666667 </v>
   <v>       0.08333333      -0.33333333       0.50000000 </v>
   <v>      -0.25000000       0.25000000       0.16666667 </v>
   <v>      -0.00000000       0.25000000      -0.41666667 </v>
   <v>       0.33333333       0.33333333       0.16666667 </v>
   <v>       0.33333333       0.33333333       0.50000000 </v>
   <v>       0.41666667       0.33333333       0.16666667 </v>
   <v>       0.25000000       0.33333333       0.50000000 </v>
   <v>       0.25000000       0.41666667      -0.25000000 </v>
   <v>       0.50000000       0.33333333       0.16666667 </v>
   <v>       0.16666667       0.33333333       0.50000000 </v>
   <v>       0.16666667       0.50000000      -0.33333333 </v>
   <v>      -0.41666667       0.33333333       0.16666667 </v>
   <v>       0.08333333       0.33333333       0.50000000 </v>
   <v>       0.08333333      -0.41666667      -0.41666667 </v>
   <v>      -0.33333333       0.33333333       0.16666667 </v>
   <v>       0.00000000       0.33333333       0.50000000 </v>
   <v>       0.41666667       0.41666667       0.16666667 </v>
   <v>       0.16666667       0.41666667       0.41666667 </v>
   <v>       0.16666667       0.41666667      -0.25000000 </v>
   <v>       0.50000000       0.41666667       0.16666667 </v>
   <v>       0.08333333       0.41666667       0.41666667 </v>
   <v>       0.08333333       0.50000000      -0.33333333 </v>
   <v>      -0.41666667       0.41666667       0.16666667 </v>
   <v>      -0.00000000       0.41666667       0.41666667 </v>
   <v>       0.41666667       0.50000000       0.16666667 </v>
   <v>       0.08333333       0.50000000       0.33333333 </v>
   <v>       0.08333333       0.41666667      -0.25000000 </v>
   <v>       0.50000000       0.50000000       0.16666667 </v>
   <v>      -0.00000000       0.50000000       0.33333333 </v>
   <v>       0.41666667      -0.41666667       0.16666667 </v>
   <v>       0.00000000      -0.41666667       0.25000000 </v>
   <v>       0.00000000       0.00000000       0.25000000 </v>
   <v>       0.50000000      -0.00000000       0.25000000 </v>
   <v>       0.50000000       0.50000000      -0.25000000 </v>
   <v>      -0.41666667       0.00000000       0.25000000 </v>
   <v>       0.41666667      -0.41666667      -0.33333333 </v>
   <v>      -0.33333333       0.00000000       0.25000000 </v>
   <v>       0.33333333      -0.33333333      -0.41666667 </v>
   <v>      -0.25000000       0.00000000       0.25000000 </v>
   <v>       0.25000000      -0.25000000       0.50000000 </v>
   <v>      -0.16666667      -0.00000000       0.25000000 </v>
   <v>       0.16666667      -0.16666667       0.41666667 </v>
   <v>      -0.08333333       0.00000000       0.25000000 </v>
   <v>       0.08333333      -0.08333333       0.33333333 </v>
   <v>       0.50000000       0.08333333       0.25000000 </v>
   <v>       0.41666667       0.08333333      -0.33333333 </v>
   <v>       0.41666667       0.50000000      -0.25000000 </v>
   <v>      -0.41666667       0.08333333       0.25000000 </v>
   <v>       0.33333333       0.08333333      -0.33333333 </v>
   <v>       0.33333333      -0.41666667      -0.33333333 </v>
   <v>      -0.33333333       0.08333333       0.25000000 </v>
   <v>       0.25000000       0.08333333      -0.33333333 </v>
   <v>       0.25000000      -0.33333333      -0.41666667 </v>
   <v>      -0.25000000       0.08333333       0.25000000 </v>
   <v>       0.16666667       0.08333333      -0.33333333 </v>
   <v>       0.16666667      -0.25000000       0.50000000 </v>
   <v>      -0.16666667       0.08333333       0.25000000 </v>
   <v>       0.08333333       0.08333333      -0.33333333 </v>
   <v>       0.08333333      -0.16666667       0.41666667 </v>
   <v>      -0.08333333       0.08333333       0.25000000 </v>
   <v>       0.00000000       0.08333333      -0.33333333 </v>
   <v>       0.50000000       0.16666667       0.25000000 </v>
   <v>       0.33333333       0.16666667      -0.41666667 </v>
   <v>       0.33333333       0.50000000      -0.25000000 </v>
   <v>      -0.41666667       0.16666667       0.25000000 </v>
   <v>       0.25000000       0.16666667      -0.41666667 </v>
   <v>       0.25000000      -0.41666667      -0.33333333 </v>
   <v>      -0.33333333       0.16666667       0.25000000 </v>
   <v>       0.16666667       0.16666667      -0.41666667 </v>
   <v>       0.16666667      -0.33333333      -0.41666667 </v>
   <v>      -0.25000000       0.16666667       0.25000000 </v>
   <v>       0.08333333       0.16666667      -0.41666667 </v>
   <v>       0.08333333      -0.25000000       0.50000000 </v>
   <v>      -0.16666667       0.16666667       0.25000000 </v>
   <v>      -0.00000000       0.16666667      -0.41666667 </v>
   <v>       0.50000000       0.25000000       0.25000000 </v>
   <v>       0.25000000       0.25000000       0.50000000 </v>
   <v>      -0.41666667       0.25000000       0.25000000 </v>
   <v>       0.16666667       0.25000000       0.50000000 </v>
   <v>       0.16666667      -0.41666667      -0.33333333 </v>
   <v>      -0.33333333       0.25000000       0.25000000 </v>
   <v>       0.08333333       0.25000000       0.50000000 </v>
   <v>       0.08333333      -0.33333333      -0.41666667 </v>
   <v>      -0.25000000       0.25000000       0.25000000 </v>
   <v>       0.00000000       0.25000000       0.50000000 </v>
   <v>      -0.41666667       0.33333333       0.25000000 </v>
   <v>       0.08333333       0.33333333       0.41666667 </v>
   <v>       0.08333333      -0.41666667      -0.33333333 </v>
   <v>      -0.33333333       0.33333333       0.25000000 </v>
   <v>       0.00000000       0.33333333       0.41666667 </v>
   <v>      -0.41666667       0.41666667       0.25000000 </v>
   <v>      -0.00000000       0.41666667       0.33333333 </v>
   <v>      -0.00000000      -0.00000000       0.33333333 </v>
   <v>      -0.33333333      -0.00000000       0.33333333 </v>
   <v>       0.33333333      -0.33333333      -0.33333333 </v>
   <v>      -0.25000000       0.00000000       0.33333333 </v>
   <v>       0.25000000      -0.25000000      -0.41666667 </v>
   <v>      -0.16666667      -0.00000000       0.33333333 </v>
   <v>       0.16666667      -0.16666667       0.50000000 </v>
   <v>      -0.08333333      -0.00000000       0.33333333 </v>
   <v>       0.08333333      -0.08333333       0.41666667 </v>
   <v>      -0.33333333       0.08333333       0.33333333 </v>
   <v>       0.25000000       0.08333333      -0.41666667 </v>
   <v>       0.25000000      -0.33333333      -0.33333333 </v>
   <v>      -0.25000000       0.08333333       0.33333333 </v>
   <v>       0.16666667       0.08333333      -0.41666667 </v>
   <v>       0.16666667      -0.25000000      -0.41666667 </v>
   <v>      -0.16666667       0.08333333       0.33333333 </v>
   <v>       0.08333333       0.08333333      -0.41666667 </v>
   <v>       0.08333333      -0.16666667       0.50000000 </v>
   <v>      -0.08333333       0.08333333       0.33333333 </v>
   <v>       0.00000000       0.08333333      -0.41666667 </v>
   <v>      -0.33333333       0.16666667       0.33333333 </v>
   <v>       0.16666667       0.16666667       0.50000000 </v>
   <v>      -0.25000000       0.16666667       0.33333333 </v>
   <v>       0.08333333       0.16666667       0.50000000 </v>
   <v>       0.08333333      -0.25000000      -0.41666667 </v>
   <v>      -0.16666667       0.16666667       0.33333333 </v>
   <v>       0.00000000       0.16666667       0.50000000 </v>
   <v>      -0.25000000       0.25000000       0.33333333 </v>
   <v>       0.00000000       0.25000000       0.41666667 </v>
   <v>       0.00000000      -0.00000000       0.41666667 </v>
   <v>      -0.16666667       0.00000000       0.41666667 </v>
   <v>       0.16666667      -0.16666667      -0.41666667 </v>
   <v>      -0.08333333       0.00000000       0.41666667 </v>
   <v>       0.08333333      -0.08333333       0.50000000 </v>
   <v>      -0.16666667       0.08333333       0.41666667 </v>
   <v>       0.08333333       0.08333333       0.50000000 </v>
   <v>      -0.08333333       0.08333333       0.41666667 </v>
   <v>       0.00000000       0.08333333       0.50000000 </v>
   <v>       0.00000000       0.00000000       0.50000000 </v>
  </varray>
  <varray name="weights" >
   <v>       0.00057870 </v>
   <v>       0.00231481 </v>
   <v>       0.00115741 </v>
   <v>       0.00231481 </v>
   <v>       0.00115741 </v>
   <v>       0.00231481 </v>
   <v>       0.00115741 </v>
   <v>       0.00231481 </v>
   <v>       0.00115741 </v>
   <v>       0.00231481 </v>
   <v>       0.00115741 </v>
   <v>       0.00115741 </v>
   <v>       0.00057870 </v>
   <v>       0.00115741 </v>
   <v>       0.00231481 </v>
   <v>       0.00231481 </v>
   <v>       0.00231481 </v>
   <v>       0.00231481 </v>
   <v>       0.00231481 </v>
   <v>       0.00231481 </v>
   <v>       0.00231481 </v>
   <v>       0.00231481 </v>
   <v>       0.00231481 </v>
   <v>       0.00231481 </v>
   <v>       0.00231481 </v>
   <v>       0.00231481 </v>
   <v>       0.00231481 </v>
   <v>       0.00231481 </v>
   <v>       0.00231481 </v>
   <v>       0.00231481 </v>
   <v>       0.00231481 </v>
   <v>       0.00231481 </v>
   <v>       0.00231481 </v>
   <v>       0.00231481 </v>
   <v>       0.00231481 </v>
   <v>       0.00231481 </v>
   <v>       0.00231481 </v>
   <v>       0.00231481 </v>
   <v>       0.00231481 </v>
   <v>       0.00231481 </v>
   <v>       0.00231481 </v>
   <v>       0.00231481 </v>
   <v>       0.00115741 </v>
   <v>       0.00231481 </v>
   <v>       0.00115741 </v>
   <v>       0.00231481 </v>
   <v>       0.00231481 </v>
   <v>       0.00231481 </v>
   <v>       0.00231481 </v>
   <v>       0.00231481 </v>
   <v>       0.00231481 </v>
   <v>       0.00231481 </v>
   <v>       0.00231481 </v>
   <v>       0.00231481 </v>
   <v>       0.00231481 </v>
   <v>       0.00231481 </v>
   <v>       0.00231481 </v>
   <v>       0.00231481 </v>
   <v>       0.00231481 </v>
   <v>       0.00231481 </v>
   <v>       0.00231481 </v>
   <v>       0.00231481 </v>
   <v>       0.00231481 </v>
   <v>       0.00231481 </v>
   <v>       0.00231481 </v>
   <v>       0.00231481 </v>
   <v>       0.00231481 </v>
   <v>       0.00115741 </v>
   <v>       0.00231481 </v>
   <v>       0.00115741 </v>
   <v>       0.00231481 </v>
   <v>       0.00231481 </v>
   <v>       0.00231481 </v>
   <v>       0.00231481 </v>
   <v>       0.00231481 </v>
   <v>       0.00231481 </v>
   <v>       0.00231481 </v>
   <v>       0.00231481 </v>
   <v>       0.00231481 </v>
   <v>       0.00231481 </v>
   <v>       0.00231481 </v>
   <v>       0.00231481 </v>
   <v>       0.00231481 </v>
   <v>       0.00231481 </v>
   <v>       0.00231481 </v>
   <v>       0.00231481 </v>
   <v>       0.00115741 </v>
   <v>       0.00231481 </v>
   <v>       0.00115741 </v>
   <v>       0.00231481 </v>
   <v>       0.00231481 </v>
   <v>       0.00231481 </v>
   <v>       0.00231481 </v>
   <v>       0.00231481 </v>
   <v>       0.00231481 </v>
   <v>       0.00231481 </v>
   <v>       0.00231481 </v>
   <v>       0.00231481 </v>
   <v>       0.00231481 </v>
   <v>       0.00115741 </v>
   <v>       0.00231481 </v>
   <v>       0.00115741 </v>
   <v>       0.00231481 </v>
   <v>       0.00231481 </v>
   <v>       0.00231481 </v>
   <v>       0.00231481 </v>
   <v>       0.00115741 </v>
   <v>       0.00231481 </v>
   <v>       0.00057870 </v>
   <v>       0.00115741 </v>
   <v>       0.00115741 </v>
   <v>       0.00231481 </v>
   <v>       0.00115741 </v>
   <v>       0.00231481 </v>
   <v>       0.00115741 </v>
   <v>       0.00231481 </v>
   <v>       0.00115741 </v>
   <v>       0.00231481 </v>
   <v>       0.00115741 </v>
   <v>       0.00231481 </v>
   <v>       0.00115741 </v>
   <v>       0.00231481 </v>
   <v>       0.00115741 </v>
   <v>       0.00231481 </v>
   <v>       0.00115741 </v>
   <v>       0.00231481 </v>
   <v>       0.00115741 </v>
   <v>       0.00231481 </v>
   <v>       0.00115741 </v>
   <v>       0.00231481 </v>
   <v>       0.00115741 </v>
   <v>       0.00231481 </v>
   <v>       0.00231481 </v>
   <v>       0.00231481 </v>
   <v>       0.00231481 </v>
   <v>       0.00231481 </v>
   <v>       0.00231481 </v>
   <v>       0.00231481 </v>
   <v>       0.00231481 </v>
   <v>       0.00231481 </v>
   <v>       0.00231481 </v>
   <v>       0.00231481 </v>
   <v>       0.00231481 </v>
   <v>       0.00231481 </v>
   <v>       0.00231481 </v>
   <v>       0.00231481 </v>
   <v>       0.00231481 </v>
   <v>       0.00231481 </v>
   <v>       0.00231481 </v>
   <v>       0.00231481 </v>
   <v>       0.00231481 </v>
   <v>       0.00231481 </v>
   <v>       0.00231481 </v>
   <v>       0.00231481 </v>
   <v>       0.00231481 </v>
   <v>       0.00231481 </v>
   <v>       0.00231481 </v>
   <v>       0.00231481 </v>
   <v>       0.00115741 </v>
   <v>       0.00231481 </v>
   <v>       0.00231481 </v>
   <v>       0.00231481 </v>
   <v>       0.00231481 </v>
   <v>       0.00231481 </v>
   <v>       0.00231481 </v>
   <v>       0.00231481 </v>
   <v>       0.00231481 </v>
   <v>       0.00231481 </v>
   <v>       0.00231481 </v>
   <v>       0.00231481 </v>
   <v>       0.00231481 </v>
   <v>       0.00231481 </v>
   <v>       0.00231481 </v>
   <v>       0.00231481 </v>
   <v>       0.00231481 </v>
   <v>       0.00231481 </v>
   <v>       0.00231481 </v>
   <v>       0.00231481 </v>
   <v>       0.00231481 </v>
   <v>       0.00231481 </v>
   <v>       0.00231481 </v>
   <v>       0.00231481 </v>
   <v>       0.00231481 </v>
   <v>       0.00231481 </v>
   <v>       0.00115741 </v>
   <v>       0.00231481 </v>
   <v>       0.00231481 </v>
   <v>       0.00231481 </v>
   <v>       0.00231481 </v>
   <v>       0.00231481 </v>
   <v>       0.00231481 </v>
   <v>       0.00231481 </v>
   <v>       0.00231481 </v>
   <v>       0.00231481 </v>
   <v>       0.00231481 </v>
   <v>       0.00231481 </v>
   <v>       0.00231481 </v>
   <v>       0.00231481 </v>
   <v>       0.00231481 </v>
   <v>       0.00231481 </v>
   <v>       0.00231481 </v>
   <v>       0.00231481 </v>
   <v>       0.00231481 </v>
   <v>       0.00231481 </v>
   <v>       0.00231481 </v>
   <v>       0.00231481 </v>
   <v>       0.00231481 </v>
   <v>       0.00115741 </v>
   <v>       0.00231481 </v>
   <v>       0.00231481 </v>
   <v>       0.00231481 </v>
   <v>       0.00231481 </v>
   <v>       0.00231481 </v>
   <v>       0.00231481 </v>
   <v>       0.00231481 </v>
   <v>       0.00231481 </v>
   <v>       0.00231481 </v>
   <v>       0.00231481 </v>
   <v>       0.00231481 </v>
   <v>       0.00231481 </v>
   <v>       0.00231481 </v>
   <v>       0.00231481 </v>
   <v>       0.00231481 </v>
   <v>       0.00231481 </v>
   <v>       0.00231481 </v>
   <v>       0.00231481 </v>
   <v>       0.00231481 </v>
   <v>       0.00115741 </v>
   <v>       0.00231481 </v>
   <v>       0.00231481 </v>
   <v>       0.00115741 </v>
   <v>       0.00231481 </v>
   <v>       0.00231481 </v>
   <v>       0.00231481 </v>
   <v>       0.00231481 </v>
   <v>       0.00231481 </v>
   <v>       0.00231481 </v>
   <v>       0.00231481 </v>
   <v>       0.00231481 </v>
   <v>       0.00231481 </v>
   <v>       0.00231481 </v>
   <v>       0.00231481 </v>
   <v>       0.00231481 </v>
   <v>       0.00115741 </v>
   <v>       0.00231481 </v>
   <v>       0.00231481 </v>
   <v>       0.00231481 </v>
   <v>       0.00231481 </v>
   <v>       0.00231481 </v>
   <v>       0.00231481 </v>
   <v>       0.00231481 </v>
   <v>       0.00231481 </v>
   <v>       0.00231481 </v>
   <v>       0.00231481 </v>
   <v>       0.00115741 </v>
   <v>       0.00231481 </v>
   <v>       0.00231481 </v>
   <v>       0.00231481 </v>
   <v>       0.00231481 </v>
   <v>       0.00231481 </v>
   <v>       0.00231481 </v>
   <v>       0.00231481 </v>
   <v>       0.00115741 </v>
   <v>       0.00231481 </v>
   <v>       0.00231481 </v>
   <v>       0.00231481 </v>
   <v>       0.00231481 </v>
   <v>       0.00115741 </v>
   <v>       0.00231481 </v>
   <v>       0.00115741 </v>
   <v>       0.00231481 </v>
   <v>       0.00115741 </v>
   <v>       0.00231481 </v>
   <v>       0.00115741 </v>
   <v>       0.00231481 </v>
   <v>       0.00115741 </v>
   <v>       0.00231481 </v>
   <v>       0.00115741 </v>
   <v>       0.00231481 </v>
   <v>       0.00115741 </v>
   <v>       0.00231481 </v>
   <v>       0.00115741 </v>
   <v>       0.00231481 </v>
   <v>       0.00115741 </v>
   <v>       0.00231481 </v>
   <v>       0.00115741 </v>
   <v>       0.00231481 </v>
   <v>       0.00115741 </v>
   <v>       0.00231481 </v>
   <v>       0.00231481 </v>
   <v>       0.00231481 </v>
   <v>       0.00231481 </v>
   <v>       0.00231481 </v>
   <v>       0.00231481 </v>
   <v>       0.00231481 </v>
   <v>       0.00231481 </v>
   <v>       0.00231481 </v>
   <v>       0.00231481 </v>
   <v>       0.00231481 </v>
   <v>       0.00231481 </v>
   <v>       0.00231481 </v>
   <v>       0.00231481 </v>
   <v>       0.00231481 </v>
   <v>       0.00231481 </v>
   <v>       0.00231481 </v>
   <v>       0.00231481 </v>
   <v>       0.00231481 </v>
   <v>       0.00231481 </v>
   <v>       0.00231481 </v>
   <v>       0.00115741 </v>
   <v>       0.00231481 </v>
   <v>       0.00231481 </v>
   <v>       0.00231481 </v>
   <v>       0.00231481 </v>
   <v>       0.00231481 </v>
   <v>       0.00231481 </v>
   <v>       0.00231481 </v>
   <v>       0.00231481 </v>
   <v>       0.00231481 </v>
   <v>       0.00231481 </v>
   <v>       0.00231481 </v>
   <v>       0.00231481 </v>
   <v>       0.00231481 </v>
   <v>       0.00231481 </v>
   <v>       0.00231481 </v>
   <v>       0.00231481 </v>
   <v>       0.00231481 </v>
   <v>       0.00231481 </v>
   <v>       0.00231481 </v>
   <v>       0.00115741 </v>
   <v>       0.00231481 </v>
   <v>       0.00231481 </v>
   <v>       0.00231481 </v>
   <v>       0.00231481 </v>
   <v>       0.00231481 </v>
   <v>       0.00231481 </v>
   <v>       0.00231481 </v>
   <v>       0.00231481 </v>
   <v>       0.00231481 </v>
   <v>       0.00231481 </v>
   <v>       0.00231481 </v>
   <v>       0.00231481 </v>
   <v>       0.00231481 </v>
   <v>       0.00231481 </v>
   <v>       0.00231481 </v>
   <v>       0.00231481 </v>
   <v>       0.00115741 </v>
   <v>       0.00231481 </v>
   <v>       0.00231481 </v>
   <v>       0.00115741 </v>
   <v>       0.00231481 </v>
   <v>       0.00231481 </v>
   <v>       0.00231481 </v>
   <v>       0.00231481 </v>
   <v>       0.00231481 </v>
   <v>       0.00231481 </v>
   <v>       0.00231481 </v>
   <v>       0.00231481 </v>
   <v>       0.00231481 </v>
   <v>       0.00115741 </v>
   <v>       0.00231481 </v>
   <v>       0.00231481 </v>
   <v>       0.00231481 </v>
   <v>       0.00231481 </v>
   <v>       0.00231481 </v>
   <v>       0.00231481 </v>
   <v>       0.00231481 </v>
   <v>       0.00115741 </v>
   <v>       0.00231481 </v>
   <v>       0.00231481 </v>
   <v>       0.00231481 </v>
   <v>       0.00231481 </v>
   <v>       0.00115741 </v>
   <v>       0.00231481 </v>
   <v>       0.00115741 </v>
   <v>       0.00231481 </v>
   <v>       0.00115741 </v>
   <v>       0.00231481 </v>
   <v>       0.00115741 </v>
   <v>       0.00231481 </v>
   <v>       0.00115741 </v>
   <v>       0.00231481 </v>
   <v>       0.00115741 </v>
   <v>       0.00231481 </v>
   <v>       0.00115741 </v>
   <v>       0.00231481 </v>
   <v>       0.00115741 </v>
   <v>       0.00231481 </v>
   <v>       0.00115741 </v>
   <v>       0.00231481 </v>
   <v>       0.00231481 </v>
   <v>       0.00231481 </v>
   <v>       0.00231481 </v>
   <v>       0.00231481 </v>
   <v>       0.00231481 </v>
   <v>       0.00231481 </v>
   <v>       0.00231481 </v>
   <v>       0.00231481 </v>
   <v>       0.00231481 </v>
   <v>       0.00231481 </v>
   <v>       0.00231481 </v>
   <v>       0.00231481 </v>
   <v>       0.00231481 </v>
   <v>       0.00231481 </v>
   <v>       0.00115741 </v>
   <v>       0.00231481 </v>
   <v>       0.00231481 </v>
   <v>       0.00231481 </v>
   <v>       0.00231481 </v>
   <v>       0.00231481 </v>
   <v>       0.00231481 </v>
   <v>       0.00231481 </v>
   <v>       0.00231481 </v>
   <v>       0.00231481 </v>
   <v>       0.00231481 </v>
   <v>       0.00231481 </v>
   <v>       0.00231481 </v>
   <v>       0.00231481 </v>
   <v>       0.00115741 </v>
   <v>       0.00231481 </v>
   <v>       0.00231481 </v>
   <v>       0.00115741 </v>
   <v>       0.00231481 </v>
   <v>       0.00231481 </v>
   <v>       0.00231481 </v>
   <v>       0.00231481 </v>
   <v>       0.00231481 </v>
   <v>       0.00231481 </v>
   <v>       0.00115741 </v>
   <v>       0.00231481 </v>
   <v>       0.00231481 </v>
   <v>       0.00231481 </v>
   <v>       0.00231481 </v>
   <v>       0.00115741 </v>
   <v>       0.00231481 </v>
   <v>       0.00115741 </v>
   <v>       0.00231481 </v>
   <v>       0.00115741 </v>
   <v>       0.00231481 </v>
   <v>       0.00115741 </v>
   <v>       0.00231481 </v>
   <v>       0.00115741 </v>
   <v>       0.00231481 </v>
   <v>       0.00115741 </v>
   <v>       0.00231481 </v>
   <v>       0.00115741 </v>
   <v>       0.00231481 </v>
   <v>       0.00231481 </v>
   <v>       0.00231481 </v>
   <v>       0.00231481 </v>
   <v>       0.00231481 </v>
   <v>       0.00231481 </v>
   <v>       0.00231481 </v>
   <v>       0.00231481 </v>
   <v>       0.00231481 </v>
   <v>       0.00115741 </v>
   <v>       0.00231481 </v>
   <v>       0.00231481 </v>
   <v>       0.00115741 </v>
   <v>       0.00231481 </v>
   <v>       0.00231481 </v>
   <v>       0.00231481 </v>
   <v>       0.00115741 </v>
   <v>       0.00231481 </v>
   <v>       0.00115741 </v>
   <v>       0.00231481 </v>
   <v>       0.00115741 </v>
   <v>       0.00231481 </v>
   <v>       0.00115741 </v>
   <v>       0.00231481 </v>
   <v>       0.00115741 </v>
   <v>       0.00231481 </v>
   <v>       0.00115741 </v>
   <v>       0.00115741 </v>
   <v>       0.00231481 </v>
   <v>       0.00057870 </v>
  </varray>
 </kpoints>
 <parameters>
  <separator name="general" >
   <i type="string" name="SYSTEM">B</i>
   <i type="logical" name="LCOMPAT"> F  </i>
  </separator>
  <separator name="electronic" >
   <i type="string" name="PREC">normal</i>
   <i name="ENMAX">    414.19820000</i>
   <i name="ENAUG">    535.51400000</i>
   <i name="EDIFF">      0.00010000</i>
   <i type="int" name="IALGO">    38</i>
   <i type="int" name="IWAVPR">    10</i>
   <i type="int" name="NBANDS">    48</i>
   <i type="int" name="NBANDSLOW">    -1</i>
   <i type="int" name="NBANDSHIGH">    -1</i>
   <i name="NELECT">     36.00000000</i>
   <i type="int" name="TURBO">     0</i>
   <i type="int" name="IRESTART">     0</i>
   <i type="int" name="NREBOOT">     0</i>
   <i type="int" name="NMIN">     0</i>
   <i name="EREF">      0.00000000</i>
   <separator name="electronic smearing" >
    <i type="int" name="ISMEAR">     0</i>
    <i name="SIGMA">      0.05000000</i>
    <i name="KSPACING">      0.50000000</i>
    <i type="logical" name="KGAMMA"> T  </i>
    <i type="logical" name="KBLOWUP"> T  </i>
   </separator>
   <separator name="electronic projectors" >
    <i type="logical" name="LREAL"> F  </i>
    <v name="ROPT">      0.00000000</v>
    <i type="int" name="LMAXPAW">  -100</i>
    <i type="int" name="LMAXMIX">     2</i>
    <i type="logical" name="NLSPLINE"> F  </i>
   </separator>
   <separator name="electronic startup" >
    <i type="int" name="ISTART">     1</i>
    <i type="int" name="ICHARG">     0</i>
    <i type="int" name="INIWAV">     1</i>
   </separator>
   <separator name="electronic spin" >
    <i type="int" name="ISPIN">     1</i>
    <i type="logical" name="LNONCOLLINEAR"> F  </i>
    <v name="MAGMOM">      1.00000000      1.00000000      1.00000000      1.00000000      1.00000000      1.00000000      1.00000000      1.00000000      1.00000000      1.00000000      1.00000000      1.00000000</v>
    <i name="NUPDOWN">     -1.00000000</i>
    <i type="logical" name="LSORBIT"> F  </i>
    <v name="SAXIS">      0.00000000      0.00000000      1.00000000</v>
    <i type="logical" name="LSPIRAL"> F  </i>
    <v name="QSPIRAL">      0.00000000      0.00000000      0.00000000</v>
    <i type="logical" name="LZEROZ"> F  </i>
   </separator>
   <separator name="electronic exchange-correlation" >
    <i type="logical" name="LASPH"> F  </i>
   </separator>
   <separator name="electronic convergence" >
    <i type="int" name="NELM">    60</i>
    <i type="int" name="NELMDL">     0</i>
    <i type="int" name="NELMIN">     2</i>
    <i name="ENINI">    414.19820000</i>
    <separator name="electronic convergence detail" >
     <i type="logical" name="LDIAG"> T  </i>
     <i type="logical" name="LSUBROT"> F  </i>
     <i name="WEIMIN">      0.00000000</i>
     <i name="EBREAK">      0.00000052</i>
     <i name="DEPER">      0.30000000</i>
     <i type="int" name="NRMM">     4</i>
     <i name="TIME">      0.40000000</i>
    </separator>
   </separator>
   <separator name="electronic mixer" >
    <i name="AMIX">      0.40000000</i>
    <i name="BMIX">      1.00000000</i>
    <i name="AMIN">      0.10000000</i>
    <i name="AMIX_MAG">      1.60000000</i>
    <i name="BMIX_MAG">      1.00000000</i>
    <separator name="electronic mixer details" >
     <i type="int" name="IMIX">     4</i>
     <i type="logical" name="MIXFIRST"> F  </i>
     <i type="int" name="MAXMIX">   -45</i>
     <i name="WC">    100.00000000</i>
     <i type="int" name="INIMIX">     1</i>
     <i type="int" name="MIXPRE">     1</i>
     <i type="int" name="MREMOVE">     5</i>
    </separator>
   </separator>
   <separator name="electronic dipolcorrection" >
    <i type="logical" name="LDIPOL"> F  </i>
    <i type="logical" name="LMONO"> F  </i>
    <i type="int" name="IDIPOL">     0</i>
    <i name="EPSILON">      1.00000000</i>
    <v name="DIPOL">   -100.00000000   -100.00000000   -100.00000000</v>
    <i name="EFIELD">      0.00000000</i>
    <i type="logical" name="LVACPOTAV"> F  </i>
   </separator>
  </separator>
  <separator name="grids" >
   <i type="int" name="NGX">    24</i>
   <i type="int" name="NGY">    24</i>
   <i type="int" name="NGZ">    28</i>
   <i type="int" name="NGXF">    48</i>
   <i type="int" name="NGYF">    48</i>
   <i type="int" name="NGZF">    56</i>
   <i type="logical" name="ADDGRID"> F  </i>
  </separator>
  <separator name="ionic" >
   <i type="int" name="NSW">     0</i>
   <i type="int" name="IBRION">    -1</i>
   <i type="int" name="MDALGO">     0</i>
   <i type="int" name="ISIF">     2</i>
   <i name="PSTRESS">      0.00000000</i>
   <i name="EDIFFG">      0.00100000</i>
   <i type="int" name="NFREE">     0</i>
   <i name="POTIM">      0.50000000</i>
   <i name="SMASS">     -3.00000000</i>
   <i name="SCALEE">      1.00000000</i>
  </separator>
  <separator name="ionic md" >
   <i name="TEBEG">      0.00010000</i>
   <i name="TEEND">      0.00010000</i>
   <i type="int" name="NBLOCK">     1</i>
   <i type="int" name="KBLOCK">     1</i>
   <i type="int" name="NPACO">   256</i>
   <i name="APACO">     10.00000000</i>
  </separator>
  <separator name="symmetry" >
   <i type="int" name="ISYM">     2</i>
   <i name="SYMPREC">      0.00001000</i>
  </separator>
  <separator name="dos" >
   <i type="int" name="LORBIT">     0</i>
   <v name="RWIGS">     -1.00000000</v>
   <i type="int" name="NEDOS">   301</i>
   <i name="EMIN">     10.00000000</i>
   <i name="EMAX">    -10.00000000</i>
   <i name="EFERMI">      0.00000000</i>
  </separator>
  <separator name="writing" >
   <i type="int" name="NWRITE">     2</i>
   <i type="logical" name="LWAVE"> T  </i>
   <i type="logical" name="LDOWNSAMPLE"> F  </i>
   <i type="logical" name="LCHARG"> T  </i>
   <i type="logical" name="LPARD"> F  </i>
   <i type="logical" name="LVTOT"> F  </i>
   <i type="logical" name="LVHAR"> F  </i>
   <i type="logical" name="LELF"> F  </i>
   <i type="logical" name="LOPTICS"> F  </i>
   <v name="STM">      0.00000000      0.00000000      0.00000000      0.00000000      0.00000000      0.00000000      0.00000000</v>
  </separator>
  <separator name="performance" >
   <i type="int" name="NPAR">    48</i>
   <i type="int" name="NSIM">     4</i>
   <i type="int" name="NBLK">    -1</i>
   <i type="logical" name="LPLANE"> T  </i>
   <i type="logical" name="LSCALAPACK"> T  </i>
   <i type="logical" name="LSCAAWARE"> T  </i>
   <i type="logical" name="LSCALU"> F  </i>
   <i type="logical" name="LASYNC"> F  </i>
   <i type="logical" name="LORBITALREAL"> F  </i>
  </separator>
  <separator name="miscellaneous" >
   <i type="int" name="IDIOT">     3</i>
   <i type="int" name="PHON_NSTRUCT">    -1</i>
   <i type="logical" name="LMUSIC"> F  </i>
   <v name="POMASS">     10.81100000</v>
   <v name="DARWINR">      0.00000000</v>
   <v name="DARWINV">      1.00000000</v>
   <i type="logical" name="LCORR"> T  </i>
  </separator>
  <i type="logical" name="GGA_COMPAT"> T  </i>
  <i type="logical" name="LBERRY"> F  </i>
  <i type="int" name="ICORELEVEL">     0</i>
  <i type="logical" name="LDAU"> F  </i>
  <i type="int" name="I_CONSTRAINED_M">     0</i>
  <separator name="electronic exchange-correlation" >
   <i type="string" name="GGA    ">PE</i>
   <i type="string" name="XC_C">1</i>
   <i type="int" name="VOSKOWN">     0</i>
   <i type="logical" name="LHFCALC"> F  </i>
   <i type="string" name="PRECFOCK"></i>
   <i type="logical" name="LSYMGRAD"> F  </i>
   <i type="logical" name="LHFONE"> F  </i>
   <i type="logical" name="LRHFCALC"> F  </i>
   <i type="logical" name="LTHOMAS"> F  </i>
   <i type="logical" name="LMODELHF"> F  </i>
   <i type="logical" name="LFOCKACE"> F  </i>
   <i name="ENCUT4O">     -1.00000000</i>
   <i type="int" name="EXXOEP">     0</i>
   <i type="int" name="FOURORBIT">     0</i>
   <i name="AEXX">      0.00000000</i>
   <i name="HFALPHA">      0.00000000</i>
   <i name="MCALPHA">      0.00000000</i>
   <i name="ALDAX">      1.00000000</i>
   <i name="AGGAX">      1.00000000</i>
   <i name="AMGGAX">      1.00000000</i>
   <i name="ALDAC">      1.00000000</i>
   <i name="AGGAC">      1.00000000</i>
   <i name="AMGGAC">      1.00000000</i>
   <i type="int" name="NKREDX">     1</i>
   <i type="int" name="NKREDY">     1</i>
   <i type="int" name="NKREDZ">     1</i>
   <i type="logical" name="SHIFTRED"> F  </i>
   <i type="logical" name="ODDONLY"> F  </i>
   <i type="logical" name="EVENONLY"> F  </i>
   <i type="int" name="LMAXFOCK">     0</i>
   <i type="int" name="NMAXFOCKAE">     0</i>
   <i type="logical" name="LFOCKAEDFT"> F  </i>
   <i name="HFSCREEN">      0.00000000</i>
   <i name="HFSCREENC">      0.00000000</i>
   <i type="int" name="NBANDSGWLOW">     0</i>
  </separator>
  <separator name="vdW DFT" >
   <i type="logical" name="LUSE_VDW"> F  </i>
   <i type="int" name="IVDW_NL">    -1</i>
   <i type="logical" name="LSPIN_VDW"> F  </i>
   <i name="ZAB_VDW">     -0.84910000</i>
   <i name="GAMMA_VDW">      1.39626340</i>
   <i name="ALPHA_VDW">      0.00000000</i>
   <i name="PARAM1">      0.12340000</i>
   <i name="PARAM2">      1.00000000</i>
   <i name="BPARAM">      6.30000000</i>
   <i name="CPARAM">      0.00930000</i>
  </separator>
  <separator name="model GW" >
   <i type="int" name="MODEL_GW">     0</i>
   <i name="MODEL_EPS0">      4.35127055</i>
   <i name="MODEL_ALPHA">      1.00000000</i>
  </separator>
  <separator name="linear response parameters" >
   <i type="logical" name="LEPSILON"> F  </i>
   <i type="logical" name="LRPA"> F  </i>
   <i type="logical" name="LNABLA"> F  </i>
   <i type="logical" name="LVEL"> F  </i>
   <i name="CSHIFT">      0.10000000</i>
   <i name="OMEGAMAX">     -1.00000000</i>
   <i name="DEG_THRESHOLD">      0.00200000</i>
   <i name="RTIME">     -0.10000000</i>
   <i name="WPLASMAI">      0.00000000</i>
   <v name="DFIELD">      0.00000000      0.00000000      0.00000000</v>
   <v name="WPLASMA">      0.00000000      0.00000000      0.00000000      0.00000000      0.00000000      0.00000000      0.00000000      0.00000000      0.00000000</v>
  </separator>
  <separator name="orbital magnetization" >
   <i type="logical" name="NUCIND"> F  </i>
   <v name="MAGPOS">      0.00000000      0.00000000      0.00000000</v>
   <i type="logical" name="LNICSALL"> T  </i>
   <i type="logical" name="ORBITALMAG"> F  </i>
   <i type="logical" name="LMAGBLOCH"> F  </i>
   <i type="logical" name="LCHIMAG"> F  </i>
   <i type="logical" name="LGAUGE"> T  </i>
   <i type="int" name="MAGATOM">     0</i>
   <v name="MAGDIPOL">      0.00000000      0.00000000      0.00000000</v>
   <v name="AVECCONST">      0.00000000      0.00000000      0.00000000</v>
  </separator>
  <separator name="response functions" >
   <i type="logical" name="LALL_IN_ONE"> F  </i>
   <i type="int" name="IALL_IN_ONE">    -1</i>
   <i type="int" name="NBANDS_WAVE">    -1</i>
   <i type="logical" name="LFINITE_TEMPERATURE"> F  </i>
   <i type="logical" name="LADDER"> F  </i>
   <i type="logical" name="LRPAFORCE"> F  </i>
   <i type="logical" name="LFXC"> F  </i>
   <i type="logical" name="LHARTREE"> T  </i>
   <i type="int" name="IBSE">     0</i>
   <v type="int" name="KPOINT">    -1     0     0     0</v>
   <i type="logical" name="LTCTC"> F  </i>
   <i type="logical" name="LTCTE"> F  </i>
   <i type="logical" name="LTETE"> F  </i>
   <i type="logical" name="LTRIPLET"> F  </i>
   <i type="logical" name="LFXCEPS"> F  </i>
   <i type="logical" name="LFXHEG"> F  </i>
   <i type="int" name="NATURALO">     2</i>
   <i type="logical" name="LHOLEGF"> F  </i>
   <i type="logical" name="L2ORDER"> F  </i>
   <i type="logical" name="LDMP1"> F  </i>
   <i type="logical" name="LMP2LT"> F  </i>
   <i type="logical" name="LSMP2LT"> F  </i>
   <i type="logical" name="LGWLF"> F  </i>
   <i name="ENCUTGW">     -1.60000002</i>
   <i name="ENCUTGWSOFT">     -1.60000002</i>
   <i name="ENCUTLF">     -1.00000000</i>
   <i type="logical" name="ESF_SPLINES"> F  </i>
   <i name="ESF_CONV">      0.01000000</i>
   <i type="int" name="ESF_NINTER">    15</i>
   <i type="int" name="LMAXMP2">    -1</i>
   <i name="SCISSOR">      0.00000000</i>
   <i type="int" name="NOMEGA">     0</i>
   <i type="int" name="NOMEGAR">     0</i>
   <i type="int" name="NBANDSGW">    -1</i>
   <i type="int" name="NBANDSO">    -1</i>
   <i type="int" name="NBANDSV">    -1</i>
   <i type="int" name="NELMGW">     1</i>
   <i type="int" name="NELMHF">     1</i>
   <i type="int" name="DIM">     3</i>
   <i type="int" name="IESPILON">     4</i>
   <i type="int" name="ANTIRES">     0</i>
   <i name="OMEGAMAX">    -30.00000000</i>
   <i name="OMEGAMIN">    -30.00000000</i>
   <i name="OMEGATL">   -200.00000000</i>
   <i type="int" name="OMEGAGRID">     0</i>
   <i name="CSHIFT">     -0.10000000</i>
   <i type="logical" name="LSELFENERGY"> F  </i>
   <i type="logical" name="LSPECTRAL"> F  </i>
   <i type="logical" name="LSPECTRALGW"> F  </i>
   <i type="logical" name="LSINGLES"> F  </i>
   <i type="logical" name="LFERMIGW"> F  </i>
   <i type="logical" name="ODDONLYGW"> F  </i>
   <i type="logical" name="EVENONLYGW"> F  </i>
   <i type="int" name="NKREDLFX">     1</i>
   <i type="int" name="NKREDLFY">     1</i>
   <i type="int" name="NKREDLFZ">     1</i>
   <i type="int" name="MAXMEM">  2800</i>
   <i type="int" name="TELESCOPE">     0</i>
   <i type="int" name="NTAUPAR">    -1</i>
   <i type="int" name="NOMEGAPAR">    -1</i>
   <i name="DAMP_NEWTON">      0.80000001</i>
   <i name="LAMBDA">      1.00000000</i>
  </separator>
  <separator name="External order field" >
   <i name="OFIELD_KAPPA">      0.00000000</i>
   <v name="OFIELD_K">      0.00000000      0.00000000      0.00000000</v>
   <i name="OFIELD_Q6_NEAR">      0.00000000</i>
   <i name="OFIELD_Q6_FAR">      0.00000000</i>
   <i name="OFIELD_A">      0.00000000</i>
  </separator>
  <separator name="optional k-points parameters" >
   <i type="int" name="KPOINTS_OPT_MODE">     1</i>
   <i type="logical" name="LKPOINTS_OPT"> T  </i>
  </separator>
 </parameters>
 <atominfo>
  <atoms>      12 </atoms>
  <types>       1 </types>
  <array name="atoms" >
   <dimension dim="1">ion</dimension>
   <field type="string">element</field>
   <field type="int">atomtype</field>
   <set>
    <rc><c>B </c><c>   1</c></rc>
    <rc><c>B </c><c>   1</c></rc>
    <rc><c>B </c><c>   1</c></rc>
    <rc><c>B </c><c>   1</c></rc>
    <rc><c>B </c><c>   1</c></rc>
    <rc><c>B </c><c>   1</c></rc>
    <rc><c>B </c><c>   1</c></rc>
    <rc><c>B </c><c>   1</c></rc>
    <rc><c>B </c><c>   1</c></rc>
    <rc><c>B </c><c>   1</c></rc>
    <rc><c>B </c><c>   1</c></rc>
    <rc><c>B </c><c>   1</c></rc>
   </set>
  </array>
  <array name="atomtypes" >
   <dimension dim="1">type</dimension>
   <field type="int">atomspertype</field>
   <field type="string">element</field>
   <field>mass</field>
   <field>valence</field>
   <field type="string">pseudopotential</field>
   <set>
    <rc><c>  12</c><c>B </c><c>     10.81100000</c><c>      3.00000000</c><c>PAW_PBE B 06Sep2000                     </c></rc>
   </set>
  </array>
 </atominfo>
 <structure name="initialpos" >
  <crystal>
   <varray name="basis" >
    <v>       4.28537843       0.00000000       2.37741417 </v>
    <v>      -1.48322609       4.02051100      -2.37741417 </v>
    <v>       0.00000000       0.00000000       5.05098000 </v>
   </varray>
   <i name="volume">     87.02541100 </i>
   <varray name="rec_basis" >
    <v>       0.23335162       0.08608687       0.00000000 </v>
    <v>       0.00000000       0.24872460       0.00000000 </v>
    <v>      -0.10983481       0.07655094       0.19798138 </v>
   </varray>
  </crystal>
  <varray name="positions" >
   <v>       0.98969000       0.01031000       0.67465000 </v>
   <v>       0.01031000       0.98969000       0.32535000 </v>
   <v>       0.98969000       0.65404000       0.67465000 </v>
   <v>       0.01031000       0.34596000       0.32535000 </v>
   <v>       0.34596000       0.01031000       0.67465000 </v>
   <v>       0.65404000       0.98969000       0.32535000 </v>
   <v>       0.77885000       0.22115000       0.07274000 </v>
   <v>       0.22115000       0.77885000       0.92726000 </v>
   <v>       0.77885000       0.63043000       0.07274000 </v>
   <v>       0.22115000       0.36957000       0.92726000 </v>
   <v>       0.36957000       0.22115000       0.07274000 </v>
   <v>       0.63043000       0.77885000       0.92726000 </v>
  </varray>
 </structure>
 <calculation>
  <scstep>
   <time name="dav">   11.99   11.99</time>
   <time name="total">   12.06   12.06</time>
   <energy>
    <i name="alphaZ">    113.83449793 </i>
    <i name="ewald">  -1014.33615643 </i>
    <i name="hartreedc">   -111.58609965 </i>
    <i name="XCdc">     89.48457058 </i>
    <i name="pawpsdc">   3270.56412269 </i>
    <i name="pawaedc">  -3261.28158647 </i>
    <i name="eentropy">     -0.00000000 </i>
    <i name="bandstr">    -21.14270698 </i>
    <i name="atom">    854.02186985 </i>
    <i name="e_fr_energy">    -80.44148848 </i>
    <i name="e_wo_entrp">    -80.44148848 </i>
    <i name="e_0_energy">    -80.44148848 </i>
   </energy>
  </scstep>
  <scstep>
   <time name="dav">    4.17    4.17</time>
   <time name="total">    4.18    4.18</time>
   <energy>
    <i name="alphaZ">    113.83449793 </i>
    <i name="ewald">  -1014.33615643 </i>
    <i name="hartreedc">   -111.58439901 </i>
    <i name="XCdc">     89.48450657 </i>
    <i name="pawpsdc">   3270.52495827 </i>
    <i name="pawaedc">  -3261.24239497 </i>
    <i name="eentropy">     -0.00000000 </i>
    <i name="bandstr">    -21.14437052 </i>
    <i name="atom">    854.02186985 </i>
    <i name="e_fr_energy">    -80.44148832 </i>
    <i name="e_wo_entrp">    -80.44148832 </i>
    <i name="e_0_energy">    -80.44148832 </i>
   </energy>
  </scstep>
  <structure>
   <crystal>
    <varray name="basis" >
     <v>       4.28537843       0.00000000       2.37741417 </v>
     <v>      -1.48322609       4.02051100      -2.37741417 </v>
     <v>       0.00000000       0.00000000       5.05098000 </v>
    </varray>
    <i name="volume">     87.02541100 </i>
    <varray name="rec_basis" >
     <v>       0.23335162       0.08608687       0.00000000 </v>
     <v>       0.00000000       0.24872460       0.00000000 </v>
     <v>      -0.10983481       0.07655094       0.19798138 </v>
    </varray>
   </crystal>
   <varray name="positions" >
    <v>       0.98969000       0.01031000       0.67465000 </v>
    <v>       0.01031000       0.98969000       0.32535000 </v>
    <v>       0.98969000       0.65404000       0.67465000 </v>
    <v>       0.01031000       0.34596000       0.32535000 </v>
    <v>       0.34596000       0.01031000       0.67465000 </v>
    <v>       0.65404000       0.98969000       0.32535000 </v>
    <v>       0.77885000       0.22115000       0.07274000 </v>
    <v>       0.22115000       0.77885000       0.92726000 </v>
    <v>       0.77885000       0.63043000       0.07274000 </v>
    <v>       0.22115000       0.36957000       0.92726000 </v>
    <v>       0.36957000       0.22115000       0.07274000 </v>
    <v>       0.63043000       0.77885000       0.92726000 </v>
   </varray>
  </structure>
  <varray name="forces" >
   <v>      -0.00015037       0.00010480       0.01292523 </v>
   <v>       0.00015037      -0.00010480      -0.01292523 </v>
   <v>      -0.00374554       0.00900414       0.00696206 </v>
   <v>       0.00374554      -0.00900414      -0.00696206 </v>
   <v>      -0.00974400       0.00039759       0.00696206 </v>
   <v>       0.00974400      -0.00039759      -0.00696206 </v>
   <v>       0.01084327      -0.00755737       0.00352212 </v>
   <v>      -0.01084327       0.00755737      -0.00352212 </v>
   <v>       0.00373105       0.01133259      -0.00799246 </v>
   <v>      -0.00373105      -0.01133259       0.00799246 </v>
   <v>      -0.00934079      -0.00742280      -0.00799246 </v>
   <v>       0.00934079       0.00742280       0.00799246 </v>
  </varray>
  <varray name="stress" >
   <v>      -1.73054313      -0.18654235      -0.39686704 </v>
   <v>      -0.18654235      -1.86817960       0.27660213 </v>
   <v>      -0.39686706       0.27660214      -1.25417563 </v>
  </varray>
  <energy>
   <i name="e_fr_energy">    -80.44148832 </i>
   <i name="e_wo_entrp">    -80.44148832 </i>
   <i name="e_0_energy">    -80.44148832 </i>
  </energy>
  <dos comment="kpoints_opt">
   <i name="efermi">      6.97829451 </i>
   <total>
    <array>
     <dimension dim="1">gridpoints</dimension>
     <dimension dim="2">spin</dimension>
     <field>energy</field>
     <field>total</field>
     <field>integrated</field>
     <set>
      <set comment="spin 1">
       <r>   -11.9830     0.0000     0.0000 </r>
       <r>   -11.8571     0.0000     0.0000 </r>
       <r>   -11.7311     0.0000     0.0000 </r>
       <r>   -11.6052     0.0000     0.0000 </r>
       <r>   -11.4792     0.0000     0.0000 </r>
       <r>   -11.3533     0.0000     0.0000 </r>
       <r>   -11.2273     0.0000     0.0000 </r>
       <r>   -11.1014     0.0000     0.0000 </r>
       <r>   -10.9754     0.0000     0.0000 </r>
       <r>   -10.8495     0.0000     0.0000 </r>
       <r>   -10.7235     0.0000     0.0000 </r>
       <r>   -10.5976     0.0000     0.0000 </r>
       <r>   -10.4716     0.0000     0.0000 </r>
       <r>   -10.3457     0.0099     0.0012 </r>
       <r>   -10.2197     1.5506     0.1966 </r>
       <r>   -10.0937     1.6318     0.4021 </r>
       <r>    -9.9678     1.0259     0.5313 </r>
       <r>    -9.8418     0.8465     0.6379 </r>
       <r>    -9.7159     0.7596     0.7336 </r>
       <r>    -9.5899     0.7194     0.8242 </r>
       <r>    -9.4640     1.3922     0.9995 </r>
       <r>    -9.3380     2.5881     1.3255 </r>
       <r>    -9.2121     2.2943     1.6145 </r>
       <r>    -9.0861     2.8609     1.9748 </r>
       <r>    -8.9602     0.1997     2.0000 </r>
       <r>    -8.8342     0.0000     2.0000 </r>
       <r>    -8.7083     0.0000     2.0000 </r>
       <r>    -8.5823     0.0000     2.0000 </r>
       <r>    -8.4564     0.0000     2.0000 </r>
       <r>    -8.3304     0.0000     2.0000 </r>
       <r>    -8.2044     0.0000     2.0000 </r>
       <r>    -8.0785     0.0000     2.0000 </r>
       <r>    -7.9525     0.0000     2.0000 </r>
       <r>    -7.8266     0.0000     2.0000 </r>
       <r>    -7.7006     0.0000     2.0000 </r>
       <r>    -7.5747     0.0000     2.0000 </r>
       <r>    -7.4487     0.0000     2.0000 </r>
       <r>    -7.3228     0.0698     2.0088 </r>
       <r>    -7.1968     1.5601     2.2053 </r>
       <r>    -7.0709     1.8977     2.4443 </r>
       <r>    -6.9449     1.3364     2.6126 </r>
       <r>    -6.8190     2.7703     2.9616 </r>
       <r>    -6.6930     1.5708     3.1594 </r>
       <r>    -6.5671     1.3855     3.3339 </r>
       <r>    -6.4411     0.8779     3.4445 </r>
       <r>    -6.3151     0.7662     3.5410 </r>
       <r>    -6.1892     0.7235     3.6321 </r>
       <r>    -6.0632     0.7047     3.7209 </r>
       <r>    -5.9373     1.1774     3.8692 </r>
       <r>    -5.8113     1.0896     4.0064 </r>
       <r>    -5.6854     0.9749     4.1292 </r>
       <r>    -5.5594     1.0179     4.2574 </r>
       <r>    -5.4335     3.1196     4.6503 </r>
       <r>    -5.3075     3.4850     5.0893 </r>
       <r>    -5.1816     3.2136     5.4940 </r>
       <r>    -5.0556     2.9391     5.8642 </r>
       <r>    -4.9297     3.0004     6.2421 </r>
       <r>    -4.8037     3.0101     6.6213 </r>
       <r>    -4.6777     2.4189     6.9260 </r>
       <r>    -4.5518     2.9319     7.2952 </r>
       <r>    -4.4258     2.7507     7.6417 </r>
       <r>    -4.2999     1.8292     7.8721 </r>
       <r>    -4.1739     1.5619     8.0688 </r>
       <r>    -4.0480     1.1721     8.2165 </r>
       <r>    -3.9220     0.6528     8.2987 </r>
       <r>    -3.7961     0.5193     8.3641 </r>
       <r>    -3.6701     0.4620     8.4223 </r>
       <r>    -3.5442     0.7651     8.5186 </r>
       <r>    -3.4182     0.7338     8.6111 </r>
       <r>    -3.2923     0.6561     8.6937 </r>
       <r>    -3.1663     2.3456     8.9891 </r>
       <r>    -3.0404     2.4783     9.3013 </r>
       <r>    -2.9144     1.9567     9.5477 </r>
       <r>    -2.7884     1.7664     9.7702 </r>
       <r>    -2.6625     2.0125    10.0237 </r>
       <r>    -2.5365     4.9793    10.6509 </r>
       <r>    -2.4106     4.4872    11.2161 </r>
       <r>    -2.2846     2.6966    11.5557 </r>
       <r>    -2.1587     3.9165    12.0490 </r>
       <r>    -2.0327     3.2332    12.4562 </r>
       <r>    -1.9068     1.8507    12.6893 </r>
       <r>    -1.7808     1.8862    12.9269 </r>
       <r>    -1.6549     2.9456    13.2979 </r>
       <r>    -1.5289     2.9218    13.6659 </r>
       <r>    -1.4030     2.0837    13.9284 </r>
       <r>    -1.2770     2.2373    14.2102 </r>
       <r>    -1.1511     2.9806    14.5856 </r>
       <r>    -1.0251     3.1352    14.9805 </r>
       <r>    -0.8991     2.7705    15.3294 </r>
       <r>    -0.7732     2.6639    15.6650 </r>
       <r>    -0.6472     2.3472    15.9606 </r>
       <r>    -0.5213     4.4271    16.5182 </r>
       <r>    -0.3953     4.4624    17.0803 </r>
       <r>    -0.2694     2.4125    17.3841 </r>
       <r>    -0.1434     2.3170    17.6760 </r>
       <r>    -0.0175     2.2353    17.9575 </r>
       <r>     0.1085     2.5523    18.2790 </r>
       <r>     0.2344     3.4786    18.7171 </r>
       <r>     0.3604     3.3700    19.1416 </r>
       <r>     0.4863     4.5998    19.7209 </r>
       <r>     0.6123     4.8841    20.3361 </r>
       <r>     0.7382     2.8173    20.6909 </r>
       <r>     0.8642     2.2116    20.9695 </r>
       <r>     0.9902     1.4842    21.1564 </r>
       <r>     1.1161     1.2782    21.3174 </r>
       <r>     1.2421     1.2881    21.4797 </r>
       <r>     1.3680     1.1613    21.6259 </r>
       <r>     1.4940     3.0314    22.0077 </r>
       <r>     1.6199     4.4082    22.5630 </r>
       <r>     1.7459     3.2222    22.9688 </r>
       <r>     1.8718     5.0624    23.6065 </r>
       <r>     1.9978     4.7044    24.1990 </r>
       <r>     2.1237     4.0864    24.7137 </r>
       <r>     2.2497     3.1784    25.1140 </r>
       <r>     2.3756     5.2048    25.7696 </r>
       <r>     2.5016     5.1446    26.4176 </r>
       <r>     2.6276     4.0132    26.9230 </r>
       <r>     2.7535     4.7603    27.5226 </r>
       <r>     2.8795     3.5362    27.9680 </r>
       <r>     3.0054     2.3114    28.2591 </r>
       <r>     3.1314     1.5660    28.4564 </r>
       <r>     3.2573     2.3742    28.7554 </r>
       <r>     3.3833     4.4532    29.3163 </r>
       <r>     3.5092     4.9059    29.9342 </r>
       <r>     3.6352     2.9976    30.3118 </r>
       <r>     3.7611     4.0848    30.8263 </r>
       <r>     3.8871     3.9998    31.3301 </r>
       <r>     4.0130     4.3508    31.8781 </r>
       <r>     4.1390     5.2870    32.5440 </r>
       <r>     4.2649     3.2769    32.9567 </r>
       <r>     4.3909     2.4130    33.2607 </r>
       <r>     4.5169     3.5080    33.7025 </r>
       <r>     4.6428     2.7958    34.0546 </r>
       <r>     4.7688     2.0666    34.3149 </r>
       <r>     4.8947     2.3916    34.6162 </r>
       <r>     5.0207     3.3338    35.0361 </r>
       <r>     5.1466     3.7138    35.5038 </r>
       <r>     5.2726     1.3603    35.6752 </r>
       <r>     5.3985     1.1349    35.8181 </r>
       <r>     5.5245     0.8484    35.9250 </r>
       <r>     5.6504     0.5944    35.9998 </r>
       <r>     5.7764     0.0013    36.0000 </r>
       <r>     5.9023     0.0000    36.0000 </r>
       <r>     6.0283     0.0000    36.0000 </r>
       <r>     6.1542     0.0000    36.0000 </r>
       <r>     6.2802     0.0000    36.0000 </r>
       <r>     6.4062     0.0000    36.0000 </r>
       <r>     6.5321     0.0000    36.0000 </r>
       <r>     6.6581     0.0000    36.0000 </r>
       <r>     6.7840     0.0000    36.0000 </r>
       <r>     6.9100     0.0000    36.0000 </r>
       <r>     7.0359     0.0000    36.0000 </r>
       <r>     7.1619     0.0000    36.0000 </r>
       <r>     7.2878     0.0071    36.0009 </r>
       <r>     7.4138     1.6411    36.2076 </r>
       <r>     7.5397     2.2831    36.4952 </r>
       <r>     7.6657     2.3429    36.7903 </r>
       <r>     7.7916     3.8094    37.2701 </r>
       <r>     7.9176     2.6253    37.6007 </r>
       <r>     8.0435     1.3989    37.7769 </r>
       <r>     8.1695     1.4794    37.9633 </r>
       <r>     8.2955     1.2638    38.1224 </r>
       <r>     8.4214     0.9194    38.2382 </r>
       <r>     8.5474     1.1321    38.3808 </r>
       <r>     8.6733     1.8864    38.6184 </r>
       <r>     8.7993     2.5625    38.9412 </r>
       <r>     8.9252     2.5671    39.2645 </r>
       <r>     9.0512     3.7779    39.7404 </r>
       <r>     9.1771     2.3891    40.0413 </r>
       <r>     9.3031     1.8573    40.2752 </r>
       <r>     9.4290     2.2688    40.5610 </r>
       <r>     9.5550     2.1459    40.8312 </r>
       <r>     9.6809     1.7939    41.0572 </r>
       <r>     9.8069     1.8433    41.2894 </r>
       <r>     9.9329     3.5723    41.7393 </r>
       <r>    10.0588     2.7915    42.0909 </r>
       <r>    10.1848     2.2919    42.3796 </r>
       <r>    10.3107     2.1571    42.6513 </r>
       <r>    10.4367     2.9611    43.0242 </r>
       <r>    10.5626     1.9584    43.2709 </r>
       <r>    10.6886     3.2776    43.6837 </r>
       <r>    10.8145     3.4160    44.1140 </r>
       <r>    10.9405     3.7307    44.5839 </r>
       <r>    11.0664     4.4575    45.1453 </r>
       <r>    11.1924     3.2587    45.5558 </r>
       <r>    11.3183     3.6431    46.0146 </r>
       <r>    11.4443     2.9162    46.3819 </r>
       <r>    11.5702     3.6845    46.8460 </r>
       <r>    11.6962     2.9320    47.2153 </r>
       <r>    11.8222     2.4576    47.5248 </r>
       <r>    11.9481     2.3735    47.8238 </r>
       <r>    12.0741     1.5924    48.0243 </r>
       <r>    12.2000     1.9607    48.2713 </r>
       <r>    12.3260     2.8749    48.6334 </r>
       <r>    12.4519     2.7086    48.9746 </r>
       <r>    12.5779     1.6069    49.1770 </r>
       <r>    12.7038     2.0470    49.4348 </r>
       <r>    12.8298     2.4277    49.7406 </r>
       <r>    12.9557     2.6379    50.0728 </r>
       <r>    13.0817     2.8933    50.4372 </r>
       <r>    13.2076     1.7643    50.6594 </r>
       <r>    13.3336     2.5634    50.9823 </r>
       <r>    13.4595     3.0532    51.3669 </r>
       <r>    13.5855     3.3406    51.7876 </r>
       <r>    13.7115     6.6967    52.6311 </r>
       <r>    13.8374     4.6990    53.2230 </r>
       <r>    13.9634     5.9299    53.9699 </r>
       <r>    14.0893     3.9951    54.4731 </r>
       <r>    14.2153     3.0304    54.8547 </r>
       <r>    14.3412     3.6832    55.3187 </r>
       <r>    14.4672     1.9203    55.5605 </r>
       <r>    14.5931     3.4404    55.9938 </r>
       <r>    14.7191     2.6617    56.3291 </r>
       <r>    14.8450     2.3097    56.6200 </r>
       <r>    14.9710     5.9872    57.3741 </r>
       <r>    15.0969     4.6823    57.9639 </r>
       <r>    15.2229     6.5275    58.7860 </r>
       <r>    15.3488     7.2222    59.6957 </r>
       <r>    15.4748     4.2915    60.2362 </r>
       <r>    15.6008     4.6149    60.8175 </r>
       <r>    15.7267     2.6364    61.1496 </r>
       <r>    15.8527     2.7906    61.5010 </r>
       <r>    15.9786     4.5544    62.0747 </r>
       <r>    16.1046     6.2260    62.8589 </r>
       <r>    16.2305     8.9383    63.9847 </r>
       <r>    16.3565     5.5806    64.6876 </r>
       <r>    16.4824     3.6316    65.1450 </r>
       <r>    16.6084     2.7946    65.4970 </r>
       <r>    16.7343     2.3089    65.7878 </r>
       <r>    16.8603     2.1845    66.0629 </r>
       <r>    16.9862     2.7444    66.4086 </r>
       <r>    17.1122     3.3547    66.8311 </r>
       <r>    17.2382     4.9673    67.4568 </r>
       <r>    17.3641     3.9887    67.9592 </r>
       <r>    17.4901     4.7939    68.5630 </r>
       <r>    17.6160     7.0252    69.4478 </r>
       <r>    17.7420     4.2604    69.9844 </r>
       <r>    17.8679     6.1683    70.7614 </r>
       <r>    17.9939     5.1819    71.4140 </r>
       <r>    18.1198     4.6611    72.0011 </r>
       <r>    18.2458     3.7464    72.4730 </r>
       <r>    18.3717     2.9697    72.8470 </r>
       <r>    18.4977     6.3896    73.6518 </r>
       <r>    18.6236     5.9739    74.4043 </r>
       <r>    18.7496     5.6307    75.1135 </r>
       <r>    18.8755     5.9433    75.8620 </r>
       <r>    19.0015     6.1315    76.6343 </r>
       <r>    19.1275     5.4035    77.3149 </r>
       <r>    19.2534     3.5623    77.7636 </r>
       <r>    19.3794     5.1647    78.4141 </r>
       <r>    19.5053     5.7895    79.1433 </r>
[...]
       <r>   -2.6292    1.0000 </r>
       <r>   -0.3900    1.0000 </r>
       <r>   -0.1290    1.0000 </r>
       <r>    0.1926    1.0000 </r>
       <r>    0.9618    1.0000 </r>
       <r>    1.9574    1.0000 </r>
       <r>    2.6110    1.0000 </r>
       <r>    2.8054    1.0000 </r>
       <r>    3.0324    1.0000 </r>
       <r>    3.9629    1.0000 </r>
       <r>    3.9649    1.0000 </r>
       <r>    5.6344    1.0000 </r>
       <r>    8.5782    0.0000 </r>
       <r>    8.6342    0.0000 </r>
       <r>    8.8828    0.0000 </r>
       <r>   10.4987    0.0000 </r>
       <r>   10.6301    0.0000 </r>
       <r>   11.4960    0.0000 </r>
       <r>   11.9621    0.0000 </r>
       <r>   12.8290    0.0000 </r>
       <r>   13.0480    0.0000 </r>
       <r>   13.5142    0.0000 </r>
       <r>   14.4807    0.0000 </r>
       <r>   15.6908    0.0000 </r>
       <r>   16.2615    0.0000 </r>
       <r>   16.3972    0.0000 </r>
       <r>   17.1838    0.0000 </r>
       <r>   17.2408    0.0000 </r>
       <r>   17.5413    0.0000 </r>
       <r>   17.7391    0.0000 </r>
       <r>   17.8470    0.0000 </r>
       <r>   17.8485    0.0000 </r>
       <r>   19.5924    0.0000 </r>
       <r>   19.8344    0.0000 </r>
       <r>   20.4902    0.0000 </r>
       <r>   20.5312    0.0000 </r>
       <r>   21.2018    0.0000 </r>
       <r>   21.4536    0.0000 </r>
       <r>   22.1742    0.0000 </r>
       <r>   22.3190    0.0000 </r>
       <r>   23.1264    0.0000 </r>
       <r>   23.5228    0.0000 </r>
      </set>
      <set comment="kpoint 476">
       <r>   -9.7052    1.0000 </r>
       <r>   -6.7699    1.0000 </r>
       <r>   -4.4378    1.0000 </r>
       <r>   -4.4376    1.0000 </r>
       <r>   -3.8328    1.0000 </r>
       <r>   -2.8386    1.0000 </r>
       <r>   -2.8383    1.0000 </r>
       <r>   -0.6228    1.0000 </r>
       <r>    0.1743    1.0000 </r>
       <r>    0.1745    1.0000 </r>
       <r>    1.0920    1.0000 </r>
       <r>    1.8680    1.0000 </r>
       <r>    2.5928    1.0000 </r>
       <r>    2.5929    1.0000 </r>
       <r>    2.9127    1.0000 </r>
       <r>    4.0264    1.0000 </r>
       <r>    4.0265    1.0000 </r>
       <r>    5.9089    1.0000 </r>
       <r>    8.5143    0.0000 </r>
       <r>    8.6783    0.0000 </r>
       <r>    8.6784    0.0000 </r>
       <r>   10.8045    0.0000 </r>
       <r>   10.8048    0.0000 </r>
       <r>   11.3816    0.0000 </r>
       <r>   11.8982    0.0000 </r>
       <r>   13.0230    0.0000 </r>
       <r>   13.0235    0.0000 </r>
       <r>   13.6104    0.0000 </r>
       <r>   14.1380    0.0000 </r>
       <r>   15.8367    0.0000 </r>
       <r>   16.6130    0.0000 </r>
       <r>   16.6131    0.0000 </r>
       <r>   17.2524    0.0000 </r>
       <r>   17.2529    0.0000 </r>
       <r>   17.3519    0.0000 </r>
       <r>   17.3521    0.0000 </r>
       <r>   17.4360    0.0000 </r>
       <r>   17.4360    0.0000 </r>
       <r>   20.0762    0.0000 </r>
       <r>   20.0763    0.0000 </r>
       <r>   20.3380    0.0000 </r>
       <r>   20.3381    0.0000 </r>
       <r>   21.0718    0.0000 </r>
       <r>   21.5598    0.0000 </r>
       <r>   22.3656    0.0000 </r>
       <r>   22.3657    0.0000 </r>
       <r>   23.4830    0.0000 </r>
       <r>   23.4835    0.0000 </r>
      </set>
     </set>
    </set>
   </array>
  </eigenvalues>
  <separator name="orbital magnetization" >
   <v name="MAGDIPOLOUT">      0.00000000      0.00000000      0.00000000</v>
  </separator>
  <dos>
   <i name="efermi">      6.15818374 </i>
   <total>
    <array>
     <dimension dim="1">gridpoints</dimension>
     <dimension dim="2">spin</dimension>
     <field>energy</field>
     <field>total</field>
     <field>integrated</field>
     <set>
      <set comment="spin 1">
       <r>   -11.9830     0.0000     0.0000 </r>
       <r>   -11.8571     0.0000     0.0000 </r>
       <r>   -11.7311     0.0000     0.0000 </r>
       <r>   -11.6052     0.0000     0.0000 </r>
       <r>   -11.4792     0.0000     0.0000 </r>
       <r>   -11.3533     0.0000     0.0000 </r>
       <r>   -11.2273     0.0000     0.0000 </r>
       <r>   -11.1014     0.0000     0.0000 </r>
       <r>   -10.9754     0.0000     0.0000 </r>
       <r>   -10.8495     0.0000     0.0000 </r>
       <r>   -10.7235     0.0000     0.0000 </r>
       <r>   -10.5976     0.0000     0.0000 </r>
       <r>   -10.4716     0.0000     0.0000 </r>
       <r>   -10.3457     0.0002     0.0000 </r>
       <r>   -10.2197     0.0892     0.0112 </r>
       <r>   -10.0937     0.4527     0.0683 </r>
       <r>    -9.9678     0.7236     0.1594 </r>
       <r>    -9.8418     0.9458     0.2785 </r>
       <r>    -9.7159     1.3567     0.4494 </r>
       <r>    -9.5899     1.7120     0.6650 </r>
       <r>    -9.4640     1.9415     0.9096 </r>
       <r>    -9.3380     2.7443     1.2552 </r>
       <r>    -9.2121     3.1605     1.6533 </r>
       <r>    -9.0861     2.6097     1.9820 </r>
       <r>    -8.9602     0.1430     2.0000 </r>
       <r>    -8.8342     0.0000     2.0000 </r>
       <r>    -8.7083     0.0000     2.0000 </r>
       <r>    -8.5823     0.0000     2.0000 </r>
       <r>    -8.4564     0.0000     2.0000 </r>
       <r>    -8.3304     0.0000     2.0000 </r>
       <r>    -8.2044     0.0000     2.0000 </r>
       <r>    -8.0785     0.0000     2.0000 </r>
       <r>    -7.9525     0.0000     2.0000 </r>
       <r>    -7.8266     0.0000     2.0000 </r>
       <r>    -7.7006     0.0000     2.0000 </r>
       <r>    -7.5747     0.0000     2.0000 </r>
       <r>    -7.4487     0.0021     2.0003 </r>
       <r>    -7.3228     0.1969     2.0251 </r>
       <r>    -7.1968     0.7990     2.1257 </r>
       <r>    -7.0709     1.8423     2.3577 </r>
       <r>    -6.9449     2.2662     2.6432 </r>
       <r>    -6.8190     2.4135     2.9472 </r>
       <r>    -6.6930     1.4860     3.1343 </r>
       <r>    -6.5671     1.4265     3.3140 </r>
       <r>    -6.4411     1.7961     3.5402 </r>
       <r>    -6.3151     1.6566     3.7489 </r>
       <r>    -6.1892     1.6362     3.9550 </r>
       <r>    -6.0632     2.1508     4.2259 </r>
       <r>    -5.9373     1.7082     4.4410 </r>
       <r>    -5.8113     1.5516     4.6364 </r>
       <r>    -5.6854     2.2932     4.9253 </r>
       <r>    -5.5594     2.2733     5.2116 </r>
       <r>    -5.4335     2.6376     5.5438 </r>
       <r>    -5.3075     3.5079     5.9856 </r>
       <r>    -5.1816     3.2302     6.3925 </r>
       <r>    -5.0556     2.7603     6.7402 </r>
       <r>    -4.9297     2.9202     7.1080 </r>
       <r>    -4.8037     2.5261     7.4261 </r>
       <r>    -4.6777     1.9708     7.6744 </r>
       <r>    -4.5518     1.4852     7.8614 </r>
       <r>    -4.4258     0.6447     7.9426 </r>
       <r>    -4.2999     0.3811     7.9906 </r>
       <r>    -4.1739     0.1085     8.0043 </r>
       <r>    -4.0480     0.2080     8.0305 </r>
       <r>    -3.9220     0.3083     8.0693 </r>
       <r>    -3.7961     0.4272     8.1231 </r>
       <r>    -3.6701     0.9734     8.2457 </r>
       <r>    -3.5442     1.1501     8.3906 </r>
       <r>    -3.4182     1.3795     8.5643 </r>
       <r>    -3.2923     1.3461     8.7339 </r>
       <r>    -3.1663     1.8751     8.9701 </r>
       <r>    -3.0404     1.6544     9.1784 </r>
       <r>    -2.9144     1.7449     9.3982 </r>
       <r>    -2.7884     2.3460     9.6937 </r>
       <r>    -2.6625     2.0267     9.9490 </r>
       <r>    -2.5365     3.2814    10.3623 </r>
       <r>    -2.4106     2.8832    10.7254 </r>
       <r>    -2.2846     3.2809    11.1387 </r>
       <r>    -2.1587     3.0646    11.5247 </r>
       <r>    -2.0327     2.7119    11.8662 </r>
       <r>    -1.9068     3.3699    12.2907 </r>
       <r>    -1.7808     2.1976    12.5675 </r>
       <r>    -1.6549     2.5061    12.8831 </r>
       <r>    -1.5289     3.4014    13.3116 </r>
       <r>    -1.4030     2.7495    13.6579 </r>
       <r>    -1.2770     2.7186    14.0003 </r>
       <r>    -1.1511     2.3763    14.2996 </r>
       <r>    -1.0251     2.7984    14.6520 </r>
       <r>    -0.8991     3.3690    15.0764 </r>
       <r>    -0.7732     3.2378    15.4842 </r>
       <r>    -0.6472     2.0887    15.7473 </r>
       <r>    -0.5213     2.7492    16.0935 </r>
       <r>    -0.3953     2.8240    16.4492 </r>
       <r>    -0.2694     3.1234    16.8426 </r>
       <r>    -0.1434     2.9698    17.2167 </r>
       <r>    -0.0175     2.5691    17.5403 </r>
       <r>     0.1085     3.1765    17.9404 </r>
       <r>     0.2344     2.9307    18.3095 </r>
       <r>     0.3604     3.4629    18.7457 </r>
       <r>     0.4863     3.6600    19.2067 </r>
       <r>     0.6123     3.3265    19.6256 </r>
       <r>     0.7382     3.2359    20.0332 </r>
       <r>     0.8642     4.3092    20.5760 </r>
       <r>     0.9902     1.3722    20.7488 </r>
       <r>     1.1161     1.3596    20.9200 </r>
       <r>     1.2421     1.1417    21.0638 </r>
       <r>     1.3680     1.2941    21.2268 </r>
       <r>     1.4940     1.9524    21.4727 </r>
       <r>     1.6199     2.2944    21.7617 </r>
       <r>     1.7459     2.3252    22.0546 </r>
       <r>     1.8718     3.7345    22.5250 </r>
       <r>     1.9978     5.4971    23.2173 </r>
       <r>     2.1237     4.9797    23.8445 </r>
       <r>     2.2497     5.1017    24.4871 </r>
       <r>     2.3756     4.3948    25.0407 </r>
       <r>     2.5016     4.4390    25.5998 </r>
       <r>     2.6276     4.0236    26.1066 </r>
       <r>     2.7535     4.9614    26.7315 </r>
       <r>     2.8795     4.6946    27.3228 </r>
       <r>     3.0054     3.8576    27.8086 </r>
       <r>     3.1314     3.7342    28.2790 </r>
       <r>     3.2573     5.2726    28.9431 </r>
       <r>     3.3833     5.2054    29.5987 </r>
       <r>     3.5092     4.7068    30.1916 </r>
       <r>     3.6352     3.6092    30.6461 </r>
       <r>     3.7611     4.0608    31.1576 </r>
       <r>     3.8871     5.3883    31.8363 </r>
       <r>     4.0130     5.8854    32.5776 </r>
       <r>     4.1390     7.0245    33.4623 </r>
       <r>     4.2649     4.2181    33.9936 </r>
       <r>     4.3909     2.5469    34.3144 </r>
       <r>     4.5169     2.5197    34.6318 </r>
       <r>     4.6428     2.2600    34.9164 </r>
       <r>     4.7688     1.7675    35.1391 </r>
       <r>     4.8947     1.4603    35.3230 </r>
       <r>     5.0207     1.9806    35.5724 </r>
       <r>     5.1466     1.2701    35.7324 </r>
       <r>     5.2726     1.1958    35.8830 </r>
       <r>     5.3985     0.3495    35.9271 </r>
       <r>     5.5245     0.2147    35.9541 </r>
       <r>     5.6504     0.2582    35.9866 </r>
       <r>     5.7764     0.0622    35.9945 </r>
       <r>     5.9023     0.0334    35.9987 </r>
       <r>     6.0283     0.0105    36.0000 </r>
       <r>     6.1542     0.0000    36.0000 </r>
       <r>     6.2802     0.0000    36.0000 </r>
       <r>     6.4062     0.0000    36.0000 </r>
       <r>     6.5321     0.0000    36.0000 </r>
       <r>     6.6581     0.0000    36.0000 </r>
       <r>     6.7840     0.0000    36.0000 </r>
       <r>     6.9100     0.0000    36.0000 </r>
       <r>     7.0359     0.0000    36.0000 </r>
       <r>     7.1619     0.0000    36.0000 </r>
       <r>     7.2878     0.0072    36.0009 </r>
       <r>     7.4138     0.5457    36.0696 </r>
       <r>     7.5397     1.8343    36.3007 </r>
       <r>     7.6657     3.5033    36.7419 </r>
       <r>     7.7916     2.8327    37.0987 </r>
       <r>     7.9176     2.1101    37.3645 </r>
       <r>     8.0435     1.7421    37.5839 </r>
       <r>     8.1695     1.2684    37.7437 </r>
       <r>     8.2955     1.2832    37.9053 </r>
       <r>     8.4214     1.2427    38.0618 </r>
       <r>     8.5474     1.4069    38.2390 </r>
       <r>     8.6733     1.3949    38.4147 </r>
       <r>     8.7993     2.2912    38.7033 </r>
       <r>     8.9252     3.5059    39.1449 </r>
       <r>     9.0512     4.3852    39.6972 </r>
       <r>     9.1771     3.8816    40.1861 </r>
       <r>     9.3031     2.8944    40.5507 </r>
       <r>     9.4290     2.8354    40.9078 </r>
       <r>     9.5550     2.5097    41.2239 </r>
       <r>     9.6809     2.0296    41.4795 </r>
       <r>     9.8069     3.3344    41.8995 </r>
       <r>     9.9329     3.5913    42.3519 </r>
       <r>    10.0588     3.0584    42.7371 </r>
       <r>    10.1848     1.8477    42.9698 </r>
       <r>    10.3107     2.5690    43.2934 </r>
       <r>    10.4367     2.4096    43.5969 </r>
       <r>    10.5626     2.4283    43.9027 </r>
       <r>    10.6886     2.5126    44.2192 </r>
       <r>    10.8145     2.5034    44.5345 </r>
       <r>    10.9405     4.3358    45.0806 </r>
       <r>    11.0664     4.6612    45.6677 </r>
       <r>    11.1924     3.6865    46.1320 </r>
       <r>    11.3183     2.9524    46.5039 </r>
       <r>    11.4443     3.6541    46.9641 </r>
       <r>    11.5702     3.4065    47.3932 </r>
       <r>    11.6962     3.1164    47.7857 </r>
       <r>    11.8222     2.7582    48.1331 </r>
       <r>    11.9481     2.6198    48.4631 </r>
       <r>    12.0741     2.5679    48.7865 </r>
       <r>    12.2000     2.3444    49.0818 </r>
       <r>    12.3260     2.7760    49.4315 </r>
       <r>    12.4519     2.2392    49.7135 </r>
       <r>    12.5779     3.5706    50.1632 </r>
       <r>    12.7038     2.5999    50.4907 </r>
       <r>    12.8298     2.7664    50.8391 </r>
       <r>    12.9557     3.4528    51.2740 </r>
       <r>    13.0817     5.0315    51.9078 </r>
       <r>    13.2076     3.6851    52.3719 </r>
       <r>    13.3336     3.0554    52.7568 </r>
       <r>    13.4595     4.0647    53.2687 </r>
       <r>    13.5855     4.6908    53.8595 </r>
       <r>    13.7115     3.9465    54.3566 </r>
       <r>    13.8374     3.3339    54.7765 </r>
       <r>    13.9634     3.2567    55.1867 </r>
       <r>    14.0893     2.5986    55.5140 </r>
       <r>    14.2153     2.1741    55.7879 </r>
       <r>    14.3412     1.7535    56.0087 </r>
       <r>    14.4672     1.8632    56.2434 </r>
       <r>    14.5931     1.6471    56.4508 </r>
       <r>    14.7191     2.3335    56.7448 </r>
       <r>    14.8450     2.4704    57.0559 </r>
       <r>    14.9710     3.3890    57.4828 </r>
       <r>    15.0969     3.6186    57.9386 </r>
       <r>    15.2229     3.7989    58.4170 </r>
       <r>    15.3488     4.6670    59.0049 </r>
       <r>    15.4748     3.8017    59.4837 </r>
       <r>    15.6008     5.0909    60.1249 </r>
       <r>    15.7267     4.8026    60.7298 </r>
       <r>    15.8527     5.0645    61.3677 </r>
       <r>    15.9786     4.2314    61.9007 </r>
       <r>    16.1046     4.2740    62.4390 </r>
       <r>    16.2305     4.8406    63.0487 </r>
       <r>    16.3565     4.8785    63.6631 </r>
       <r>    16.4824     5.4082    64.3443 </r>
       <r>    16.6084     4.2807    64.8835 </r>
       <r>    16.7343     4.2273    65.4159 </r>
       <r>    16.8603     3.6809    65.8796 </r>
       <r>    16.9862     3.7010    66.3457 </r>
       <r>    17.1122     3.7576    66.8190 </r>
       <r>    17.2382     4.9415    67.4414 </r>
       <r>    17.3641     5.1885    68.0949 </r>
       <r>    17.4901     4.0899    68.6101 </r>
       <r>    17.6160     4.3127    69.1533 </r>
       <r>    17.7420     3.8699    69.6407 </r>
       <r>    17.8679     5.5944    70.3453 </r>
       <r>    17.9939     5.5630    71.0460 </r>
       <r>    18.1198     4.4547    71.6071 </r>
       <r>    18.2458     3.9428    72.1037 </r>
       <r>    18.3717     4.1468    72.6260 </r>
       <r>    18.4977     4.9497    73.2494 </r>
       <r>    18.6236     4.0899    73.7645 </r>
       <r>    18.7496     4.3156    74.3081 </r>
       <r>    18.8755     4.6085    74.8886 </r>
       <r>    19.0015     5.1439    75.5365 </r>
       <r>    19.1275     5.8484    76.2731 </r>
       <r>    19.2534     4.2269    76.8055 </r>
       <r>    19.3794     5.1350    77.4523 </r>
       <r>    19.5053     5.3025    78.1201 </r>
       <r>    19.6313     5.1288    78.7661 </r>
       <r>    19.7572     5.0772    79.4056 </r>
       <r>    19.8832     4.2566    79.9417 </r>
       <r>    20.0091     4.8095    80.5475 </r>
       <r>    20.1351     5.1040    81.1904 </r>
       <r>    20.2610     4.6412    81.7749 </r>
       <r>    20.3870     5.5789    82.4776 </r>
       <r>    20.5129     4.7127    83.0712 </r>
       <r>    20.6389     4.5653    83.6462 </r>
       <r>    20.7648     5.6768    84.3612 </r>
       <r>    20.8908     5.6960    85.0787 </r>
       <r>    21.0168     4.8771    85.6930 </r>
       <r>    21.1427     3.2564    86.1031 </r>
       <r>    21.2687     3.6556    86.5635 </r>
       <r>    21.3946     3.3317    86.9832 </r>
       <r>    21.5206     2.3542    87.2797 </r>
       <r>    21.6465     1.8139    87.5082 </r>
       <r>    21.7725     2.9063    87.8742 </r>
       <r>    21.8984     2.3368    88.1686 </r>
       <r>    22.0244     3.1884    88.5702 </r>
       <r>    22.1503     3.7265    89.0395 </r>
       <r>    22.2763     3.9681    89.5393 </r>
       <r>    22.4022     3.3703    89.9638 </r>
       <r>    22.5282     3.9629    90.4630 </r>
       <r>    22.6541     4.0666    90.9752 </r>
       <r>    22.7801     5.3071    91.6436 </r>
       <r>    22.9061     4.5806    92.2205 </r>
       <r>    23.0320     4.0871    92.7353 </r>
       <r>    23.1580     3.4747    93.1730 </r>
       <r>    23.2839     4.2624    93.7098 </r>
       <r>    23.4099     4.1096    94.2275 </r>
       <r>    23.5358     4.2979    94.7688 </r>
       <r>    23.6618     4.1184    95.2875 </r>
       <r>    23.7877     2.4994    95.6023 </r>
       <r>    23.9137     1.8031    95.8294 </r>
       <r>    24.0396     0.9748    95.9522 </r>
       <r>    24.1656     0.3777    95.9998 </r>
       <r>    24.2915     0.0018    96.0000 </r>
       <r>    24.4175     0.0000    96.0000 </r>
       <r>    24.5435     0.0000    96.0000 </r>
       <r>    24.6694     0.0000    96.0000 </r>
       <r>    24.7954     0.0000    96.0000 </r>
       <r>    24.9213     0.0000    96.0000 </r>
       <r>    25.0473     0.0000    96.0000 </r>
       <r>    25.1732     0.0000    96.0000 </r>
       <r>    25.2992     0.0000    96.0000 </r>
       <r>    25.4251     0.0000    96.0000 </r>
       <r>    25.5511     0.0000    96.0000 </r>
       <r>    25.6770     0.0000    96.0000 </r>
       <r>    25.8030     0.0000    96.0000 </r>
      </set>
     </set>
    </array>
   </total>
  </dos>
 </calculation>
 <structure name="finalpos" >
  <crystal>
   <varray name="basis" >
    <v>       4.28537843       0.00000000       2.37741417 </v>
    <v>      -1.48322609       4.02051100      -2.37741417 </v>
    <v>       0.00000000       0.00000000       5.05098000 </v>
   </varray>
   <i name="volume">     87.02541100 </i>
   <varray name="rec_basis" >
    <v>       0.23335162       0.08608687       0.00000000 </v>
    <v>       0.00000000       0.24872460       0.00000000 </v>
    <v>      -0.10983481       0.07655094       0.19798138 </v>
   </varray>
  </crystal>
  <varray name="positions" >
   <v>       0.98969000       0.01031000       0.67465000 </v>
   <v>       0.01031000       0.98969000       0.32535000 </v>
   <v>       0.98969000       0.65404000       0.67465000 </v>
   <v>       0.01031000       0.34596000       0.32535000 </v>
   <v>       0.34596000       0.01031000       0.67465000 </v>
   <v>       0.65404000       0.98969000       0.32535000 </v>
   <v>       0.77885000       0.22115000       0.07274000 </v>
   <v>       0.22115000       0.77885000       0.92726000 </v>
   <v>       0.77885000       0.63043000       0.07274000 </v>
   <v>       0.22115000       0.36957000       0.92726000 </v>
   <v>       0.36957000       0.22115000       0.07274000 </v>
   <v>       0.63043000       0.77885000       0.92726000 </v>
  </varray>
 </structure>
</modeling>
