   8   8   0   0
  0.3817856E+02  0.7778750E-09  0.4349410E-09  0.9027540E-09  0.5000000E-15
  1.000000000000000E-004
  CAR 
 Cl                                      
     11.01502758    -20.20267621  301     -1.97934162      1.00000000
    -20.203  0.0000E+00  0.0000E+00
    -20.099  0.0000E+00  0.0000E+00
    -19.995  0.0000E+00  0.0000E+00
    -19.890  0.0000E+00  0.0000E+00
    -19.786  0.0000E+00  0.0000E+00
    -19.682  0.0000E+00  0.0000E+00
    -19.578  0.0000E+00  0.0000E+00
    -19.474  0.0000E+00  0.0000E+00
    -19.370  0.0000E+00  0.0000E+00
    -19.266  0.0000E+00  0.0000E+00
    -19.162  0.0000E+00  0.0000E+00
    -19.058  0.1070E-14  0.1113E-15
    -18.954  0.3671E-06  0.3820E-07
    -18.850  0.4791E-01  0.4986E-02
    -18.746  0.1040E+02  0.1088E+01
    -18.642  0.5591E+02  0.6906E+01
    -18.538  0.1051E+02  0.7999E+01
    -18.434  0.8472E-02  0.8000E+01
    -18.330  0.4585E-08  0.8000E+01
    -18.226  0.0000E+00  0.8000E+01
    -18.121  0.0000E+00  0.8000E+01
    -18.017  0.0000E+00  0.8000E+01
    -17.913  0.0000E+00  0.8000E+01
    -17.809  0.0000E+00  0.8000E+01
    -17.705  0.0000E+00  0.8000E+01
    -17.601  0.0000E+00  0.8000E+01
    -17.497  0.0000E+00  0.8000E+01
    -17.393  0.0000E+00  0.8000E+01
    -17.289  0.0000E+00  0.8000E+01
    -17.185  0.0000E+00  0.8000E+01
    -17.081  0.0000E+00  0.8000E+01
    -16.977  0.0000E+00  0.8000E+01
    -16.873  0.0000E+00  0.8000E+01
    -16.769  0.0000E+00  0.8000E+01
    -16.665  0.0000E+00  0.8000E+01
    -16.561  0.0000E+00  0.8000E+01
    -16.457  0.0000E+00  0.8000E+01
    -16.352  0.0000E+00  0.8000E+01
    -16.248  0.0000E+00  0.8000E+01
    -16.144  0.0000E+00  0.8000E+01
    -16.040  0.0000E+00  0.8000E+01
    -15.936  0.0000E+00  0.8000E+01
    -15.832  0.0000E+00  0.8000E+01
    -15.728  0.0000E+00  0.8000E+01
    -15.624  0.0000E+00  0.8000E+01
    -15.520  0.0000E+00  0.8000E+01
    -15.416  0.0000E+00  0.8000E+01
    -15.312  0.0000E+00  0.8000E+01
    -15.208  0.0000E+00  0.8000E+01
    -15.104  0.0000E+00  0.8000E+01
    -15.000  0.0000E+00  0.8000E+01
    -14.896  0.1658E-09  0.8000E+01
    -14.792  0.4302E-03  0.8000E+01
    -14.688  0.8087E+00  0.8084E+01
    -14.583  0.1179E+02  0.9311E+01
    -14.479  0.2666E+02  0.1209E+02
    -14.375  0.2514E+02  0.1470E+02
    -14.271  0.1165E+02  0.1591E+02
    -14.167  0.8344E+00  0.1600E+02
    -14.063  0.2841E-03  0.1600E+02
    -13.959  0.5185E-10  0.1600E+02
    -13.855  0.0000E+00  0.1600E+02
    -13.751  0.0000E+00  0.1600E+02
    -13.647  0.0000E+00  0.1600E+02
    -13.543  0.0000E+00  0.1600E+02
    -13.439  0.0000E+00  0.1600E+02
    -13.335  0.0000E+00  0.1600E+02
    -13.231  0.0000E+00  0.1600E+02
    -13.127  0.0000E+00  0.1600E+02
    -13.023  0.0000E+00  0.1600E+02
    -12.919  0.0000E+00  0.1600E+02
    -12.814  0.0000E+00  0.1600E+02
    -12.710  0.0000E+00  0.1600E+02
    -12.606  0.0000E+00  0.1600E+02
    -12.502  0.0000E+00  0.1600E+02
    -12.398  0.0000E+00  0.1600E+02
    -12.294  0.0000E+00  0.1600E+02
    -12.190  0.0000E+00  0.1600E+02
    -12.086  0.0000E+00  0.1600E+02
    -11.982  0.0000E+00  0.1600E+02
    -11.878  0.0000E+00  0.1600E+02
    -11.774  0.0000E+00  0.1600E+02
    -11.670  0.0000E+00  0.1600E+02
    -11.566  0.0000E+00  0.1600E+02
    -11.462  0.0000E+00  0.1600E+02
    -11.358  0.0000E+00  0.1600E+02
    -11.254  0.0000E+00  0.1600E+02
    -11.150  0.0000E+00  0.1600E+02
    -11.045  0.0000E+00  0.1600E+02
    -10.941  0.0000E+00  0.1600E+02
    -10.837  0.0000E+00  0.1600E+02
    -10.733  0.0000E+00  0.1600E+02
    -10.629  0.0000E+00  0.1600E+02
    -10.525  0.0000E+00  0.1600E+02
    -10.421  0.0000E+00  0.1600E+02
    -10.317  0.0000E+00  0.1600E+02
    -10.213  0.0000E+00  0.1600E+02
    -10.109  0.0000E+00  0.1600E+02
    -10.005  0.0000E+00  0.1600E+02
     -9.901  0.0000E+00  0.1600E+02
     -9.797  0.0000E+00  0.1600E+02
     -9.693  0.0000E+00  0.1600E+02
     -9.589  0.0000E+00  0.1600E+02
     -9.485  0.0000E+00  0.1600E+02
     -9.381  0.0000E+00  0.1600E+02
     -9.276  0.0000E+00  0.1600E+02
     -9.172  0.0000E+00  0.1600E+02
     -9.068  0.0000E+00  0.1600E+02
     -8.964  0.0000E+00  0.1600E+02
     -8.860  0.0000E+00  0.1600E+02
     -8.756  0.0000E+00  0.1600E+02
     -8.652  0.0000E+00  0.1600E+02
     -8.548  0.0000E+00  0.1600E+02
     -8.444  0.0000E+00  0.1600E+02
     -8.340  0.0000E+00  0.1600E+02
     -8.236  0.0000E+00  0.1600E+02
     -8.132  0.0000E+00  0.1600E+02
     -8.028  0.0000E+00  0.1600E+02
     -7.924  0.0000E+00  0.1600E+02
     -7.820  0.1816E-14  0.1600E+02
     -7.716  0.2799E-06  0.1600E+02
     -7.612  0.1751E-01  0.1600E+02
     -7.507  0.2011E+01  0.1621E+02
     -7.403  0.8439E+01  0.1709E+02
     -7.299  0.1097E+02  0.1823E+02
     -7.195  0.1465E+02  0.1976E+02
     -7.091  0.1564E+02  0.2138E+02
     -6.987  0.9802E+01  0.2240E+02
     -6.883  0.7446E+01  0.2318E+02
     -6.779  0.5963E+01  0.2380E+02
     -6.675  0.1919E+01  0.2400E+02
     -6.571  0.1552E-01  0.2400E+02
     -6.467  0.1599E-06  0.2400E+02
     -6.363  0.6594E-15  0.2400E+02
     -6.259  0.0000E+00  0.2400E+02
     -6.155  0.0000E+00  0.2400E+02
     -6.051  0.0000E+00  0.2400E+02
     -5.947  0.0000E+00  0.2400E+02
     -5.843  0.0000E+00  0.2400E+02
     -5.738  0.2196E-09  0.2400E+02
     -5.634  0.2488E-03  0.2400E+02
     -5.530  0.2618E+00  0.2403E+02
     -5.426  0.6451E+01  0.2470E+02
     -5.322  0.2300E+02  0.2709E+02
     -5.218  0.2208E+02  0.2939E+02
     -5.114  0.1877E+02  0.3134E+02
     -5.010  0.2926E+02  0.3439E+02
     -4.906  0.3681E+02  0.3822E+02
     -4.802  0.1601E+02  0.3988E+02
     -4.698  0.1125E+01  0.4000E+02
     -4.594  0.7821E-03  0.4000E+02
     -4.490  0.4200E-09  0.4000E+02
     -4.386  0.0000E+00  0.4000E+02
     -4.282  0.0000E+00  0.4000E+02
     -4.178  0.0000E+00  0.4000E+02
     -4.074  0.0000E+00  0.4000E+02
     -3.969  0.0000E+00  0.4000E+02
     -3.865  0.0000E+00  0.4000E+02
     -3.761  0.0000E+00  0.4000E+02
     -3.657  0.0000E+00  0.4000E+02
     -3.553  0.0000E+00  0.4000E+02
     -3.449  0.0000E+00  0.4000E+02
     -3.345  0.0000E+00  0.4000E+02
     -3.241  0.0000E+00  0.4000E+02
     -3.137  0.1361E-11  0.4000E+02
     -3.033  0.1142E-04  0.4000E+02
     -2.929  0.5463E-01  0.4001E+02
     -2.825  0.1333E+01  0.4014E+02
     -2.721  0.8124E+01  0.4099E+02
     -2.617  0.2593E+02  0.4369E+02
     -2.513  0.2991E+02  0.4680E+02
     -2.409  0.3368E+02  0.5031E+02
     -2.305  0.4354E+02  0.5484E+02
     -2.200  0.1038E+02  0.5592E+02
     -2.096  0.8041E+00  0.5600E+02
     -1.992  0.1353E-02  0.5600E+02
     -1.888  0.2138E-08  0.5600E+02
     -1.784  0.0000E+00  0.5600E+02
     -1.680  0.0000E+00  0.5600E+02
     -1.576  0.0000E+00  0.5600E+02
     -1.472  0.0000E+00  0.5600E+02
     -1.368  0.0000E+00  0.5600E+02
     -1.264  0.0000E+00  0.5600E+02
     -1.160  0.0000E+00  0.5600E+02
     -1.056  0.0000E+00  0.5600E+02
     -0.952  0.0000E+00  0.5600E+02
     -0.848  0.0000E+00  0.5600E+02
     -0.744  0.0000E+00  0.5600E+02
     -0.640  0.0000E+00  0.5600E+02
     -0.536  0.0000E+00  0.5600E+02
     -0.431  0.0000E+00  0.5600E+02
     -0.327  0.0000E+00  0.5600E+02
     -0.223  0.0000E+00  0.5600E+02
     -0.119  0.4832E-14  0.5600E+02
     -0.015  0.3287E-06  0.5600E+02
      0.089  0.1078E-01  0.5600E+02
      0.193  0.8475E+00  0.5609E+02
      0.297  0.3861E+01  0.5649E+02
      0.401  0.5951E+01  0.5711E+02
      0.505  0.7543E+01  0.5790E+02
      0.609  0.1224E+02  0.5917E+02
      0.713  0.1486E+02  0.6072E+02
      0.817  0.1065E+02  0.6182E+02
      0.921  0.9049E+01  0.6277E+02
      1.025  0.7667E+01  0.6356E+02
      1.129  0.3990E+01  0.6398E+02
      1.233  0.2037E+00  0.6400E+02
      1.338  0.6014E-04  0.6400E+02
      1.442  0.1274E-10  0.6400E+02
      1.546  0.0000E+00  0.6400E+02
      1.650  0.0000E+00  0.6400E+02
      1.754  0.0000E+00  0.6400E+02
      1.858  0.0000E+00  0.6400E+02
      1.962  0.0000E+00  0.6400E+02
      2.066  0.0000E+00  0.6400E+02
      2.170  0.0000E+00  0.6400E+02
      2.274  0.0000E+00  0.6400E+02
      2.378  0.0000E+00  0.6400E+02
      2.482  0.0000E+00  0.6400E+02
      2.586  0.0000E+00  0.6400E+02
      2.690  0.0000E+00  0.6400E+02
      2.794  0.0000E+00  0.6400E+02
      2.898  0.0000E+00  0.6400E+02
      3.002  0.0000E+00  0.6400E+02
      3.107  0.0000E+00  0.6400E+02
      3.211  0.0000E+00  0.6400E+02
      3.315  0.0000E+00  0.6400E+02
      3.419  0.0000E+00  0.6400E+02
      3.523  0.0000E+00  0.6400E+02
      3.627  0.7562E-13  0.6400E+02
      3.731  0.8949E-06  0.6400E+02
      3.835  0.5112E-02  0.6400E+02
      3.939  0.1273E+00  0.6401E+02
      4.043  0.4177E+00  0.6406E+02
      4.147  0.5185E+00  0.6411E+02
      4.251  0.7787E+00  0.6419E+02
      4.355  0.9906E+00  0.6430E+02
      4.459  0.1150E+01  0.6441E+02
      4.563  0.1495E+01  0.6457E+02
      4.667  0.2209E+01  0.6480E+02
      4.771  0.2080E+01  0.6502E+02
      4.876  0.2088E+01  0.6523E+02
      4.980  0.2190E+01  0.6546E+02
      5.084  0.2160E+01  0.6569E+02
      5.188  0.2587E+01  0.6596E+02
      5.292  0.2893E+01  0.6626E+02
      5.396  0.2538E+01  0.6652E+02
      5.500  0.2806E+01  0.6681E+02
      5.604  0.3450E+01  0.6717E+02
      5.708  0.4596E+01  0.6765E+02
      5.812  0.5368E+01  0.6821E+02
      5.916  0.6646E+01  0.6890E+02
      6.020  0.5716E+01  0.6950E+02
      6.124  0.5657E+01  0.7008E+02
      6.228  0.5038E+01  0.7061E+02
      6.332  0.3923E+01  0.7102E+02
      6.436  0.3125E+01  0.7134E+02
      6.540  0.3379E+01  0.7169E+02
      6.645  0.4504E+01  0.7216E+02
      6.749  0.5931E+01  0.7278E+02
      6.853  0.9654E+01  0.7378E+02
      6.957  0.8729E+01  0.7469E+02
      7.061  0.9603E+01  0.7569E+02
      7.165  0.1292E+02  0.7704E+02
      7.269  0.1518E+02  0.7862E+02
      7.373  0.8365E+01  0.7949E+02
      7.477  0.5595E+01  0.8007E+02
      7.581  0.4863E+01  0.8057E+02
      7.685  0.6950E+01  0.8130E+02
      7.789  0.1069E+02  0.8241E+02
      7.893  0.1277E+02  0.8374E+02
      7.997  0.1256E+02  0.8505E+02
      8.101  0.1056E+02  0.8614E+02
      8.205  0.9888E+01  0.8717E+02
      8.309  0.1062E+02  0.8828E+02
      8.414  0.9838E+01  0.8930E+02
      8.518  0.8880E+01  0.9023E+02
      8.622  0.9538E+01  0.9122E+02
      8.726  0.9839E+01  0.9224E+02
      8.830  0.9045E+01  0.9318E+02
      8.934  0.7563E+01  0.9397E+02
      9.038  0.6694E+01  0.9467E+02
      9.142  0.5539E+01  0.9524E+02
      9.246  0.3445E+01  0.9560E+02
      9.350  0.2414E+01  0.9585E+02
      9.454  0.8692E+00  0.9594E+02
      9.558  0.4509E+00  0.9599E+02
      9.662  0.8649E-01  0.9600E+02
      9.766  0.2034E-02  0.9600E+02
      9.870  0.4176E-07  0.9600E+02
      9.974  0.2223E-15  0.9600E+02
     10.078  0.0000E+00  0.9600E+02
     10.183  0.0000E+00  0.9600E+02
     10.287  0.0000E+00  0.9600E+02
     10.391  0.0000E+00  0.9600E+02
     10.495  0.0000E+00  0.9600E+02
     10.599  0.0000E+00  0.9600E+02
     10.703  0.0000E+00  0.9600E+02
     10.807  0.0000E+00  0.9600E+02
     10.911  0.0000E+00  0.9600E+02
     11.015  0.0000E+00  0.9600E+02
