Cl                                      
           1
     7.778750    0.000000    0.000000
     0.000000    4.349410    0.000000
     0.000000    0.000000    9.027540
   Cl
     8
Direct configuration=     1
   0.00000000  0.40882000  0.89848000
   0.00000000  0.09118000  0.39848000
   0.00000000  0.90882000  0.60152000
   0.00000000  0.59118000  0.10152000
   0.50000000  0.90882000  0.89848000
   0.50000000  0.59118000  0.39848000
   0.50000000  0.40882000  0.60152000
   0.50000000  0.09118000  0.10152000
