 DBCSR| CPU Multiplication driver                                           BLAS (U)
 DBCSR| Multrec recursion limit                                              512 (U)
 DBCSR| Multiplication stack size                                           1000 (D)
 DBCSR| Maximum elements for images                                    UNLIMITED (U)
 DBCSR| Multiplicative factor virtual images                                   1 (U)
 DBCSR| Use multiplication densification                                       T (D)
 DBCSR| Multiplication size stacks                                             3 (U)
 DBCSR| Use memory pool for CPU allocation                                     F (U)
 DBCSR| Number of 3D layers                                               SINGLE (U)
 DBCSR| Use MPI memory allocation                                              F (U)
 DBCSR| Use RMA algorithm                                                      F (U)
 DBCSR| Use Communication thread                                               T (U)
 DBCSR| Communication thread load                                             45 (D)
 DBCSR| MPI: My process id                                                     0
 DBCSR| MPI: Number of processes                                               8
 DBCSR| OMP: Current number of threads                                        12
 DBCSR| OMP: Max number of threads                                            12
 DBCSR| Split modifier for TAS multiplication algorithm                  1.0E+00 (U)


  **** **** ******  **  PROGRAM STARTED AT               2025-08-07 23:36:16.604
 ***** ** ***  *** **   PROGRAM STARTED ON                          i04r07c05s12
 **    ****   ******    PROGRAM STARTED BY                               di38fab
 ***** **    ** ** **   PROGRAM PROCESS ID                               1457430
  **** **  *******  **  PROGRAM STARTED IN /hppfs/scratch/04/di38fab/09_GTH/Delt
                                           a_Set/Hg/aug-DZVP-MOLOPT-GTH-tier-1/8
                                           x8x8

 CP2K| version string:                 CP2K version 2025.1 (Development Version)
 CP2K| source code revision number:                                  git:3130539
 CP2K| cp2kflags: omp libint fftw3 libxc parallel scalapack max_contr=4         
 CP2K| is freely available from                            https://www.cp2k.org/
 CP2K| Program compiled at                         Tue Jun  3 16:14:32 CEST 2025
 CP2K| Program compiled on                                               login01
 CP2K| Program compiled for                                        Supermuc-foss
 CP2K| Data directory path                  /hppfs/work/pn36zo/di38fab/cp2k/data
 CP2K| Input file name                                                    GW.inp

 GLOBAL| Force Environment number                                              1
 GLOBAL| Basis set file name            /hppfs/scratch/04/di38fab/09_GTH/BASIS_A
 GLOBAL| Potential file name            /hppfs/work/pn36zo/di38fab/cp2k/data/GTH
 GLOBAL| MM Potential file name                                     MM_POTENTIAL
 GLOBAL| Coordinate file name                                             Hg.cif
 GLOBAL| Method name                                                        CP2K
 GLOBAL| Project name                                                       WSe2
 GLOBAL| Run type                                                         ENERGY
 GLOBAL| FFT library                                                       FFTW3
 GLOBAL| Diagonalization library                                       ScaLAPACK
 GLOBAL| Cholesky decomposition library                                ScaLAPACK
 GLOBAL| DGEMM library                                                      BLAS
 GLOBAL| Orthonormality check for eigenvectors                          DISABLED
 GLOBAL| Matrix multiplication library                                 ScaLAPACK
 GLOBAL| All-to-all communication in single precision                          F
 GLOBAL| FFTs using library dependent lengths                                  F
 GLOBAL| Grid backend                                                       AUTO
 GLOBAL| Global print level                                               MEDIUM
 GLOBAL| MPI I/O enabled                                                       T
 GLOBAL| Total number of message passing processes                             8
 GLOBAL| Number of threads for this process                                   12
 GLOBAL| This output is from process                                           0
 GLOBAL| OpenMP stack size per thread (OMP_STACKSIZE)                    default
 GLOBAL| CPU model name             Intel(R) Xeon(R) Platinum 8174 CPU @ 3.10GHz

 MEMORY| system memory details [Kb]
 MEMORY|                        rank 0           min           max       average
 MEMORY| MemTotal             98436664      98436664      98436664      98436664
 MEMORY| MemFree              84525252      84525252      84574580      84549916
 MEMORY| Buffers                     0             0             0             0
 MEMORY| Cached                2393812       2379304       2393812       2386558
 MEMORY| Slab                  1277724       1277724       1285560       1281642
 MEMORY| SReclaimable           275016        275016        276496        275756
 MEMORY| MemLikelyFree        87194080      87194080      87230380      87212230


 *** Fundamental physical constants (SI units) ***

 *** Literature: B. J. Mohr and B. N. Taylor,
 ***             CODATA recommended values of the fundamental physical
 ***             constants: 2006, Web Version 5.1
 ***             http://physics.nist.gov/constants

 Speed of light in vacuum [m/s]                             2.99792458000000E+08
 Magnetic constant or permeability of vacuum [N/A**2]       1.25663706143592E-06
 Electric constant or permittivity of vacuum [F/m]          8.85418781762039E-12
 Planck constant (h) [J*s]                                  6.62606896000000E-34
 Planck constant (h-bar) [J*s]                              1.05457162825177E-34
 Elementary charge [C]                                      1.60217648700000E-19
 Electron mass [kg]                                         9.10938215000000E-31
 Electron g factor [ ]                                     -2.00231930436220E+00
 Proton mass [kg]                                           1.67262163700000E-27
 Fine-structure constant                                    7.29735253760000E-03
 Rydberg constant [1/m]                                     1.09737315685270E+07
 Avogadro constant [1/mol]                                  6.02214179000000E+23
 Boltzmann constant [J/K]                                   1.38065040000000E-23
 Atomic mass unit [kg]                                      1.66053878200000E-27
 Bohr radius [m]                                            5.29177208590000E-11

 *** Conversion factors ***

 [u] -> [a.u.]                                              1.82288848426455E+03
 [Angstrom] -> [Bohr] = [a.u.]                              1.88972613288564E+00
 [a.u.] = [Bohr] -> [Angstrom]                              5.29177208590000E-01
 [a.u.] -> [s]                                              2.41888432650478E-17
 [a.u.] -> [fs]                                             2.41888432650478E-02
 [a.u.] -> [J]                                              4.35974393937059E-18
 [a.u.] -> [N]                                              8.23872205491840E-08
 [a.u.] -> [K]                                              3.15774647902944E+05
 [a.u.] -> [kJ/mol]                                         2.62549961709828E+03
 [a.u.] -> [kcal/mol]                                       6.27509468713739E+02
 [a.u.] -> [Pa]                                             2.94210107994716E+13
 [a.u.] -> [bar]                                            2.94210107994716E+08
 [a.u.] -> [atm]                                            2.90362800883016E+08
 [a.u.] -> [eV]                                             2.72113838565563E+01
 [a.u.] -> [Hz]                                             6.57968392072181E+15
 [a.u.] -> [1/cm] (wave numbers)                            2.19474631370540E+05
 [a.u./Bohr**2] -> [1/cm]                                   5.14048714338585E+03
 

 CELL_TOP| Volume [angstrom^3]:                                        59.735867
 CELL_TOP| Vector a [angstrom     4.103     0.000     0.000   |a| =     4.103050
 CELL_TOP| Vector b [angstrom     0.000     4.103     0.000   |b| =     4.103050
 CELL_TOP| Vector c [angstrom     0.000     0.000     3.548   |c| =     3.548310
 CELL_TOP| Angle (b,c), alpha [degree]:                                90.000000
 CELL_TOP| Angle (a,c), beta  [degree]:                                90.000000
 CELL_TOP| Angle (a,b), gamma [degree]:                                90.000000
 CELL_TOP| Numerically orthorhombic:                                         YES
 CELL_TOP| Periodicity                                                       XYZ

 CELL_CIF| Volume [angstrom^3]:                                        59.735867
 CELL_CIF| Vector a [angstrom     4.103     0.000     0.000   |a| =     4.103050
 CELL_CIF| Vector b [angstrom     0.000     4.103     0.000   |b| =     4.103050
 CELL_CIF| Vector c [angstrom     0.000     0.000     3.548   |c| =     3.548310
 CELL_CIF| Angle (b,c), alpha [degree]:                                90.000000
 CELL_CIF| Angle (a,c), beta  [degree]:                                90.000000
 CELL_CIF| Angle (a,b), gamma [degree]:                                90.000000
 CELL_CIF| Numerically orthorhombic:                                         YES
 CELL_CIF| Periodicity                                                       XYZ

 GENERATE|  Preliminary Number of Bonds generated:                             0
 GENERATE|  Achieved consistency in connectivity generation.

 CELL| Volume [angstrom^3]:                                            59.735867
 CELL| Vector a [angstrom]:       4.103     0.000     0.000   |a| =     4.103050
 CELL| Vector b [angstrom]:       0.000     4.103     0.000   |b| =     4.103050
 CELL| Vector c [angstrom]:       0.000     0.000     3.548   |c| =     3.548310
 CELL| Angle (b,c), alpha [degree]:                                    90.000000
 CELL| Angle (a,c), beta  [degree]:                                    90.000000
 CELL| Angle (a,b), gamma [degree]:                                    90.000000
 CELL| Numerically orthorhombic:                                             YES
 CELL| Periodicity                                                           XYZ

 CELL_REF| Volume [angstrom^3]:                                        59.735867
 CELL_REF| Vector a [angstrom     4.103     0.000     0.000   |a| =     4.103050
 CELL_REF| Vector b [angstrom     0.000     4.103     0.000   |b| =     4.103050
 CELL_REF| Vector c [angstrom     0.000     0.000     3.548   |c| =     3.548310
 CELL_REF| Angle (b,c), alpha [degree]:                                90.000000
 CELL_REF| Angle (a,c), beta  [degree]:                                90.000000
 CELL_REF| Angle (a,b), gamma [degree]:                                90.000000
 CELL_REF| Numerically orthorhombic:                                         YES
 CELL_REF| Periodicity                                                       XYZ

 *** WARNING in cryssym.F:180 :: Symmetry library SPGLIB not available ***


 *******************************************************************************
                                    Kpoints
 *******************************************************************************
 BRILLOUIN| K-point scheme                                        Monkhorst-Pack
 BRILLOUIN| K-Point grid                                             8    8    8
 BRILLOUIN| Accuracy in Symmetry determination                      0.100000E-05
 BRILLOUIN| K-Point point group symmetrization                               OFF
 BRILLOUIN| Wavefunction type                                            COMPLEX
 BRILLOUIN| List of Kpoints [2 Pi/Bohr]                                      256
 BRILLOUIN| Number           Weight            X              Y              Z
 BRILLOUIN|     1           0.00391       -0.43750       -0.43750       -0.43750
 BRILLOUIN|     2           0.00391       -0.43750       -0.43750       -0.31250
 BRILLOUIN|     3           0.00391       -0.43750       -0.43750       -0.18750
 BRILLOUIN|     4           0.00391       -0.43750       -0.43750       -0.06250
 BRILLOUIN|     5           0.00391       -0.43750       -0.43750        0.06250
 BRILLOUIN|     6           0.00391       -0.43750       -0.43750        0.18750
 BRILLOUIN|     7           0.00391       -0.43750       -0.43750        0.31250
 BRILLOUIN|     8           0.00391       -0.43750       -0.43750        0.43750
 BRILLOUIN|     9           0.00391       -0.43750       -0.31250       -0.43750
 BRILLOUIN|    10           0.00391       -0.43750       -0.31250       -0.31250
 BRILLOUIN|    11           0.00391       -0.43750       -0.31250       -0.18750
 BRILLOUIN|    12           0.00391       -0.43750       -0.31250       -0.06250
 BRILLOUIN|    13           0.00391       -0.43750       -0.31250        0.06250
 BRILLOUIN|    14           0.00391       -0.43750       -0.31250        0.18750
 BRILLOUIN|    15           0.00391       -0.43750       -0.31250        0.31250
 BRILLOUIN|    16           0.00391       -0.43750       -0.31250        0.43750
 BRILLOUIN|    17           0.00391       -0.43750       -0.18750       -0.43750
 BRILLOUIN|    18           0.00391       -0.43750       -0.18750       -0.31250
 BRILLOUIN|    19           0.00391       -0.43750       -0.18750       -0.18750
 BRILLOUIN|    20           0.00391       -0.43750       -0.18750       -0.06250
 BRILLOUIN|    21           0.00391       -0.43750       -0.18750        0.06250
 BRILLOUIN|    22           0.00391       -0.43750       -0.18750        0.18750
 BRILLOUIN|    23           0.00391       -0.43750       -0.18750        0.31250
 BRILLOUIN|    24           0.00391       -0.43750       -0.18750        0.43750
 BRILLOUIN|    25           0.00391       -0.43750       -0.06250       -0.43750
 BRILLOUIN|    26           0.00391       -0.43750       -0.06250       -0.31250
 BRILLOUIN|    27           0.00391       -0.43750       -0.06250       -0.18750
 BRILLOUIN|    28           0.00391       -0.43750       -0.06250       -0.06250
 BRILLOUIN|    29           0.00391       -0.43750       -0.06250        0.06250
 BRILLOUIN|    30           0.00391       -0.43750       -0.06250        0.18750
 BRILLOUIN|    31           0.00391       -0.43750       -0.06250        0.31250
 BRILLOUIN|    32           0.00391       -0.43750       -0.06250        0.43750
 BRILLOUIN|    33           0.00391       -0.43750        0.06250       -0.43750
 BRILLOUIN|    34           0.00391       -0.43750        0.06250       -0.31250
 BRILLOUIN|    35           0.00391       -0.43750        0.06250       -0.18750
 BRILLOUIN|    36           0.00391       -0.43750        0.06250       -0.06250
 BRILLOUIN|    37           0.00391       -0.43750        0.06250        0.06250
 BRILLOUIN|    38           0.00391       -0.43750        0.06250        0.18750
 BRILLOUIN|    39           0.00391       -0.43750        0.06250        0.31250
 BRILLOUIN|    40           0.00391       -0.43750        0.06250        0.43750
 BRILLOUIN|    41           0.00391       -0.43750        0.18750       -0.43750
 BRILLOUIN|    42           0.00391       -0.43750        0.18750       -0.31250
 BRILLOUIN|    43           0.00391       -0.43750        0.18750       -0.18750
 BRILLOUIN|    44           0.00391       -0.43750        0.18750       -0.06250
 BRILLOUIN|    45           0.00391       -0.43750        0.18750        0.06250
 BRILLOUIN|    46           0.00391       -0.43750        0.18750        0.18750
 BRILLOUIN|    47           0.00391       -0.43750        0.18750        0.31250
 BRILLOUIN|    48           0.00391       -0.43750        0.18750        0.43750
 BRILLOUIN|    49           0.00391       -0.43750        0.31250       -0.43750
 BRILLOUIN|    50           0.00391       -0.43750        0.31250       -0.31250
 BRILLOUIN|    51           0.00391       -0.43750        0.31250       -0.18750
 BRILLOUIN|    52           0.00391       -0.43750        0.31250       -0.06250
 BRILLOUIN|    53           0.00391       -0.43750        0.31250        0.06250
 BRILLOUIN|    54           0.00391       -0.43750        0.31250        0.18750
 BRILLOUIN|    55           0.00391       -0.43750        0.31250        0.31250
 BRILLOUIN|    56           0.00391       -0.43750        0.31250        0.43750
 BRILLOUIN|    57           0.00391       -0.43750        0.43750       -0.43750
 BRILLOUIN|    58           0.00391       -0.43750        0.43750       -0.31250
 BRILLOUIN|    59           0.00391       -0.43750        0.43750       -0.18750
 BRILLOUIN|    60           0.00391       -0.43750        0.43750       -0.06250
 BRILLOUIN|    61           0.00391       -0.43750        0.43750        0.06250
 BRILLOUIN|    62           0.00391       -0.43750        0.43750        0.18750
 BRILLOUIN|    63           0.00391       -0.43750        0.43750        0.31250
 BRILLOUIN|    64           0.00391       -0.43750        0.43750        0.43750
 BRILLOUIN|    65           0.00391       -0.31250       -0.43750       -0.43750
 BRILLOUIN|    66           0.00391       -0.31250       -0.43750       -0.31250
 BRILLOUIN|    67           0.00391       -0.31250       -0.43750       -0.18750
 BRILLOUIN|    68           0.00391       -0.31250       -0.43750       -0.06250
 BRILLOUIN|    69           0.00391       -0.31250       -0.43750        0.06250
 BRILLOUIN|    70           0.00391       -0.31250       -0.43750        0.18750
 BRILLOUIN|    71           0.00391       -0.31250       -0.43750        0.31250
 BRILLOUIN|    72           0.00391       -0.31250       -0.43750        0.43750
 BRILLOUIN|    73           0.00391       -0.31250       -0.31250       -0.43750
 BRILLOUIN|    74           0.00391       -0.31250       -0.31250       -0.31250
 BRILLOUIN|    75           0.00391       -0.31250       -0.31250       -0.18750
 BRILLOUIN|    76           0.00391       -0.31250       -0.31250       -0.06250
 BRILLOUIN|    77           0.00391       -0.31250       -0.31250        0.06250
 BRILLOUIN|    78           0.00391       -0.31250       -0.31250        0.18750
 BRILLOUIN|    79           0.00391       -0.31250       -0.31250        0.31250
 BRILLOUIN|    80           0.00391       -0.31250       -0.31250        0.43750
 BRILLOUIN|    81           0.00391       -0.31250       -0.18750       -0.43750
 BRILLOUIN|    82           0.00391       -0.31250       -0.18750       -0.31250
 BRILLOUIN|    83           0.00391       -0.31250       -0.18750       -0.18750
 BRILLOUIN|    84           0.00391       -0.31250       -0.18750       -0.06250
 BRILLOUIN|    85           0.00391       -0.31250       -0.18750        0.06250
 BRILLOUIN|    86           0.00391       -0.31250       -0.18750        0.18750
 BRILLOUIN|    87           0.00391       -0.31250       -0.18750        0.31250
 BRILLOUIN|    88           0.00391       -0.31250       -0.18750        0.43750
 BRILLOUIN|    89           0.00391       -0.31250       -0.06250       -0.43750
 BRILLOUIN|    90           0.00391       -0.31250       -0.06250       -0.31250
 BRILLOUIN|    91           0.00391       -0.31250       -0.06250       -0.18750
 BRILLOUIN|    92           0.00391       -0.31250       -0.06250       -0.06250
 BRILLOUIN|    93           0.00391       -0.31250       -0.06250        0.06250
 BRILLOUIN|    94           0.00391       -0.31250       -0.06250        0.18750
 BRILLOUIN|    95           0.00391       -0.31250       -0.06250        0.31250
 BRILLOUIN|    96           0.00391       -0.31250       -0.06250        0.43750
 BRILLOUIN|    97           0.00391       -0.31250        0.06250       -0.43750
 BRILLOUIN|    98           0.00391       -0.31250        0.06250       -0.31250
 BRILLOUIN|    99           0.00391       -0.31250        0.06250       -0.18750
 BRILLOUIN|   100           0.00391       -0.31250        0.06250       -0.06250
 BRILLOUIN|   101           0.00391       -0.31250        0.06250        0.06250
 BRILLOUIN|   102           0.00391       -0.31250        0.06250        0.18750
 BRILLOUIN|   103           0.00391       -0.31250        0.06250        0.31250
 BRILLOUIN|   104           0.00391       -0.31250        0.06250        0.43750
 BRILLOUIN|   105           0.00391       -0.31250        0.18750       -0.43750
 BRILLOUIN|   106           0.00391       -0.31250        0.18750       -0.31250
 BRILLOUIN|   107           0.00391       -0.31250        0.18750       -0.18750
 BRILLOUIN|   108           0.00391       -0.31250        0.18750       -0.06250
 BRILLOUIN|   109           0.00391       -0.31250        0.18750        0.06250
 BRILLOUIN|   110           0.00391       -0.31250        0.18750        0.18750
 BRILLOUIN|   111           0.00391       -0.31250        0.18750        0.31250
 BRILLOUIN|   112           0.00391       -0.31250        0.18750        0.43750
 BRILLOUIN|   113           0.00391       -0.31250        0.31250       -0.43750
 BRILLOUIN|   114           0.00391       -0.31250        0.31250       -0.31250
 BRILLOUIN|   115           0.00391       -0.31250        0.31250       -0.18750
 BRILLOUIN|   116           0.00391       -0.31250        0.31250       -0.06250
 BRILLOUIN|   117           0.00391       -0.31250        0.31250        0.06250
 BRILLOUIN|   118           0.00391       -0.31250        0.31250        0.18750
 BRILLOUIN|   119           0.00391       -0.31250        0.31250        0.31250
 BRILLOUIN|   120           0.00391       -0.31250        0.31250        0.43750
 BRILLOUIN|   121           0.00391       -0.31250        0.43750       -0.43750
 BRILLOUIN|   122           0.00391       -0.31250        0.43750       -0.31250
 BRILLOUIN|   123           0.00391       -0.31250        0.43750       -0.18750
 BRILLOUIN|   124           0.00391       -0.31250        0.43750       -0.06250
 BRILLOUIN|   125           0.00391       -0.31250        0.43750        0.06250
 BRILLOUIN|   126           0.00391       -0.31250        0.43750        0.18750
 BRILLOUIN|   127           0.00391       -0.31250        0.43750        0.31250
 BRILLOUIN|   128           0.00391       -0.31250        0.43750        0.43750
 BRILLOUIN|   129           0.00391       -0.18750       -0.43750       -0.43750
 BRILLOUIN|   130           0.00391       -0.18750       -0.43750       -0.31250
 BRILLOUIN|   131           0.00391       -0.18750       -0.43750       -0.18750
 BRILLOUIN|   132           0.00391       -0.18750       -0.43750       -0.06250
 BRILLOUIN|   133           0.00391       -0.18750       -0.43750        0.06250
 BRILLOUIN|   134           0.00391       -0.18750       -0.43750        0.18750
 BRILLOUIN|   135           0.00391       -0.18750       -0.43750        0.31250
 BRILLOUIN|   136           0.00391       -0.18750       -0.43750        0.43750
 BRILLOUIN|   137           0.00391       -0.18750       -0.31250       -0.43750
 BRILLOUIN|   138           0.00391       -0.18750       -0.31250       -0.31250
 BRILLOUIN|   139           0.00391       -0.18750       -0.31250       -0.18750
 BRILLOUIN|   140           0.00391       -0.18750       -0.31250       -0.06250
 BRILLOUIN|   141           0.00391       -0.18750       -0.31250        0.06250
 BRILLOUIN|   142           0.00391       -0.18750       -0.31250        0.18750
 BRILLOUIN|   143           0.00391       -0.18750       -0.31250        0.31250
 BRILLOUIN|   144           0.00391       -0.18750       -0.31250        0.43750
 BRILLOUIN|   145           0.00391       -0.18750       -0.18750       -0.43750
 BRILLOUIN|   146           0.00391       -0.18750       -0.18750       -0.31250
 BRILLOUIN|   147           0.00391       -0.18750       -0.18750       -0.18750
 BRILLOUIN|   148           0.00391       -0.18750       -0.18750       -0.06250
 BRILLOUIN|   149           0.00391       -0.18750       -0.18750        0.06250
 BRILLOUIN|   150           0.00391       -0.18750       -0.18750        0.18750
 BRILLOUIN|   151           0.00391       -0.18750       -0.18750        0.31250
 BRILLOUIN|   152           0.00391       -0.18750       -0.18750        0.43750
 BRILLOUIN|   153           0.00391       -0.18750       -0.06250       -0.43750
 BRILLOUIN|   154           0.00391       -0.18750       -0.06250       -0.31250
 BRILLOUIN|   155           0.00391       -0.18750       -0.06250       -0.18750
 BRILLOUIN|   156           0.00391       -0.18750       -0.06250       -0.06250
 BRILLOUIN|   157           0.00391       -0.18750       -0.06250        0.06250
 BRILLOUIN|   158           0.00391       -0.18750       -0.06250        0.18750
 BRILLOUIN|   159           0.00391       -0.18750       -0.06250        0.31250
 BRILLOUIN|   160           0.00391       -0.18750       -0.06250        0.43750
 BRILLOUIN|   161           0.00391       -0.18750        0.06250       -0.43750
 BRILLOUIN|   162           0.00391       -0.18750        0.06250       -0.31250
 BRILLOUIN|   163           0.00391       -0.18750        0.06250       -0.18750
 BRILLOUIN|   164           0.00391       -0.18750        0.06250       -0.06250
 BRILLOUIN|   165           0.00391       -0.18750        0.06250        0.06250
 BRILLOUIN|   166           0.00391       -0.18750        0.06250        0.18750
 BRILLOUIN|   167           0.00391       -0.18750        0.06250        0.31250
 BRILLOUIN|   168           0.00391       -0.18750        0.06250        0.43750
 BRILLOUIN|   169           0.00391       -0.18750        0.18750       -0.43750
 BRILLOUIN|   170           0.00391       -0.18750        0.18750       -0.31250
 BRILLOUIN|   171           0.00391       -0.18750        0.18750       -0.18750
 BRILLOUIN|   172           0.00391       -0.18750        0.18750       -0.06250
 BRILLOUIN|   173           0.00391       -0.18750        0.18750        0.06250
 BRILLOUIN|   174           0.00391       -0.18750        0.18750        0.18750
 BRILLOUIN|   175           0.00391       -0.18750        0.18750        0.31250
 BRILLOUIN|   176           0.00391       -0.18750        0.18750        0.43750
 BRILLOUIN|   177           0.00391       -0.18750        0.31250       -0.43750
 BRILLOUIN|   178           0.00391       -0.18750        0.31250       -0.31250
 BRILLOUIN|   179           0.00391       -0.18750        0.31250       -0.18750
 BRILLOUIN|   180           0.00391       -0.18750        0.31250       -0.06250
 BRILLOUIN|   181           0.00391       -0.18750        0.31250        0.06250
 BRILLOUIN|   182           0.00391       -0.18750        0.31250        0.18750
 BRILLOUIN|   183           0.00391       -0.18750        0.31250        0.31250
 BRILLOUIN|   184           0.00391       -0.18750        0.31250        0.43750
 BRILLOUIN|   185           0.00391       -0.18750        0.43750       -0.43750
 BRILLOUIN|   186           0.00391       -0.18750        0.43750       -0.31250
 BRILLOUIN|   187           0.00391       -0.18750        0.43750       -0.18750
 BRILLOUIN|   188           0.00391       -0.18750        0.43750       -0.06250
 BRILLOUIN|   189           0.00391       -0.18750        0.43750        0.06250
 BRILLOUIN|   190           0.00391       -0.18750        0.43750        0.18750
 BRILLOUIN|   191           0.00391       -0.18750        0.43750        0.31250
 BRILLOUIN|   192           0.00391       -0.18750        0.43750        0.43750
 BRILLOUIN|   193           0.00391       -0.06250       -0.43750       -0.43750
 BRILLOUIN|   194           0.00391       -0.06250       -0.43750       -0.31250
 BRILLOUIN|   195           0.00391       -0.06250       -0.43750       -0.18750
 BRILLOUIN|   196           0.00391       -0.06250       -0.43750       -0.06250
 BRILLOUIN|   197           0.00391       -0.06250       -0.43750        0.06250
 BRILLOUIN|   198           0.00391       -0.06250       -0.43750        0.18750
 BRILLOUIN|   199           0.00391       -0.06250       -0.43750        0.31250
 BRILLOUIN|   200           0.00391       -0.06250       -0.43750        0.43750
 BRILLOUIN|   201           0.00391       -0.06250       -0.31250       -0.43750
 BRILLOUIN|   202           0.00391       -0.06250       -0.31250       -0.31250
 BRILLOUIN|   203           0.00391       -0.06250       -0.31250       -0.18750
 BRILLOUIN|   204           0.00391       -0.06250       -0.31250       -0.06250
 BRILLOUIN|   205           0.00391       -0.06250       -0.31250        0.06250
 BRILLOUIN|   206           0.00391       -0.06250       -0.31250        0.18750
 BRILLOUIN|   207           0.00391       -0.06250       -0.31250        0.31250
 BRILLOUIN|   208           0.00391       -0.06250       -0.31250        0.43750
 BRILLOUIN|   209           0.00391       -0.06250       -0.18750       -0.43750
 BRILLOUIN|   210           0.00391       -0.06250       -0.18750       -0.31250
 BRILLOUIN|   211           0.00391       -0.06250       -0.18750       -0.18750
 BRILLOUIN|   212           0.00391       -0.06250       -0.18750       -0.06250
 BRILLOUIN|   213           0.00391       -0.06250       -0.18750        0.06250
 BRILLOUIN|   214           0.00391       -0.06250       -0.18750        0.18750
 BRILLOUIN|   215           0.00391       -0.06250       -0.18750        0.31250
 BRILLOUIN|   216           0.00391       -0.06250       -0.18750        0.43750
 BRILLOUIN|   217           0.00391       -0.06250       -0.06250       -0.43750
 BRILLOUIN|   218           0.00391       -0.06250       -0.06250       -0.31250
 BRILLOUIN|   219           0.00391       -0.06250       -0.06250       -0.18750
 BRILLOUIN|   220           0.00391       -0.06250       -0.06250       -0.06250
 BRILLOUIN|   221           0.00391       -0.06250       -0.06250        0.06250
 BRILLOUIN|   222           0.00391       -0.06250       -0.06250        0.18750
 BRILLOUIN|   223           0.00391       -0.06250       -0.06250        0.31250
 BRILLOUIN|   224           0.00391       -0.06250       -0.06250        0.43750
 BRILLOUIN|   225           0.00391       -0.06250        0.06250       -0.43750
 BRILLOUIN|   226           0.00391       -0.06250        0.06250       -0.31250
 BRILLOUIN|   227           0.00391       -0.06250        0.06250       -0.18750
 BRILLOUIN|   228           0.00391       -0.06250        0.06250       -0.06250
 BRILLOUIN|   229           0.00391       -0.06250        0.06250        0.06250
 BRILLOUIN|   230           0.00391       -0.06250        0.06250        0.18750
 BRILLOUIN|   231           0.00391       -0.06250        0.06250        0.31250
 BRILLOUIN|   232           0.00391       -0.06250        0.06250        0.43750
 BRILLOUIN|   233           0.00391       -0.06250        0.18750       -0.43750
 BRILLOUIN|   234           0.00391       -0.06250        0.18750       -0.31250
 BRILLOUIN|   235           0.00391       -0.06250        0.18750       -0.18750
 BRILLOUIN|   236           0.00391       -0.06250        0.18750       -0.06250
 BRILLOUIN|   237           0.00391       -0.06250        0.18750        0.06250
 BRILLOUIN|   238           0.00391       -0.06250        0.18750        0.18750
 BRILLOUIN|   239           0.00391       -0.06250        0.18750        0.31250
 BRILLOUIN|   240           0.00391       -0.06250        0.18750        0.43750
 BRILLOUIN|   241           0.00391       -0.06250        0.31250       -0.43750
 BRILLOUIN|   242           0.00391       -0.06250        0.31250       -0.31250
 BRILLOUIN|   243           0.00391       -0.06250        0.31250       -0.18750
 BRILLOUIN|   244           0.00391       -0.06250        0.31250       -0.06250
 BRILLOUIN|   245           0.00391       -0.06250        0.31250        0.06250
 BRILLOUIN|   246           0.00391       -0.06250        0.31250        0.18750
 BRILLOUIN|   247           0.00391       -0.06250        0.31250        0.31250
 BRILLOUIN|   248           0.00391       -0.06250        0.31250        0.43750
 BRILLOUIN|   249           0.00391       -0.06250        0.43750       -0.43750
 BRILLOUIN|   250           0.00391       -0.06250        0.43750       -0.31250
 BRILLOUIN|   251           0.00391       -0.06250        0.43750       -0.18750
 BRILLOUIN|   252           0.00391       -0.06250        0.43750       -0.06250
 BRILLOUIN|   253           0.00391       -0.06250        0.43750        0.06250
 BRILLOUIN|   254           0.00391       -0.06250        0.43750        0.18750
 BRILLOUIN|   255           0.00391       -0.06250        0.43750        0.31250
 BRILLOUIN|   256           0.00391       -0.06250        0.43750        0.43750
 *******************************************************************************

 *******************************************************************************
 *******************************************************************************
 **                                                                           **
 **     #####                         ##              ##                      **
 **    ##   ##            ##          ##              ##                      **
 **   ##     ##                       ##            ######                    **
 **   ##     ##  ##   ##  ##   #####  ##  ##   ####   ##    #####    #####    **
 **   ##     ##  ##   ##  ##  ##      ## ##   ##      ##   ##   ##  ##   ##   **
 **   ##  ## ##  ##   ##  ##  ##      ####     ###    ##   ######   ######    **
 **    ##  ###   ##   ##  ##  ##      ## ##      ##   ##   ##       ##        **
 **     #######   #####   ##   #####  ##  ##  ####    ##    #####   ##        **
 **           ##                                                    ##        **
 **                                                                           **
 **                                                ... make the atoms dance   **
 **                                                                           **
 **            Copyright (C) by CP2K developers group (2000-2025)             **
 **                      J. Chem. Phys. 152, 194103 (2020)                    **
 **                                                                           **
 *******************************************************************************

 DFT| Spin restricted Kohn-Sham (RKS) calculation                            RKS
 DFT| Multiplicity                                                             1
 DFT| Number of spin states                                                    1
 DFT| Charge                                                                   0
 DFT| Self-interaction correction (SIC)                                       NO
 DFT| Cutoffs: density                                              1.000000E-10
 DFT|          gradient                                             1.000000E-10
 DFT|          tau                                                  1.000000E-10
 DFT|          cutoff_smoothing_range                               0.000000E+00
 DFT| XC density smoothing                                                  NONE
 DFT| XC derivatives                                                          PW

 FUNCTIONAL| PBE:
 FUNCTIONAL| J.P.Perdew, K.Burke, M.Ernzerhof, Phys. Rev. Letter, vol. 77, n 18,
 FUNCTIONAL|  pp. 3865-3868, (1996) {spin unpolarized}                          


 QS| Method:                                                                 GPW
 QS| Density plane wave grid type                        NON-SPHERICAL FULLSPACE
 QS| Number of grid levels:                                                    4
 QS| Density cutoff [a.u.]:                                                500.0
 QS| Multi grid cutoff [a.u.]: 1) grid level                               500.0
 QS|                           2) grid level                               166.7
 QS|                           3) grid level                                55.6
 QS|                           4) grid level                                18.5
 QS| Grid level progression factor:                                          3.0
 QS| Relative density cutoff [a.u.]:                                        50.0
 QS| Interaction thresholds: eps_pgf_orb:                                1.0E-16
 QS|                         eps_filter_matrix:                          0.0E+00
 QS|                         eps_core_charge:                            1.0E-18
 QS|                         eps_rho_gspace:                             1.0E-16
 QS|                         eps_rho_rspace:                             1.0E-16
 QS|                         eps_gvg_rspace:                             1.0E-08
 QS|                         eps_ppl:                                    1.0E-02
 QS|                         eps_ppnl:                                   1.0E-10


 ATOMIC KIND INFORMATION

  1. Atomic kind: Hg                                    Number of atoms:       2

     Orbital Basis Set                                aug-DZVP-MOLOPT-GTH-tier-1

       Number of orbital shell sets:                                           1
       Number of orbital shells:                                              11
       Number of primitive Cartesian functions:                                7
       Number of Cartesian basis functions:                                   50
       Number of spherical basis functions:                                   41
       Norm type:                                                              2

       Normalised Cartesian orbitals:

                        Set   Shell   Orbital            Exponent    Coefficient

                          1       1    2s                0.078430      -0.058496
                                                         0.124587       0.000000
                                                         0.197908      -0.150033
                                                         0.443216       0.018564
                                                         0.968505       0.376322
                                                         1.999950      -0.176917
                                                         3.031517      -0.001465

                          1       2    3s                0.078430      -0.261005
                                                         0.124587       0.000000
                                                         0.197908       0.734091
                                                         0.443216      -0.538487
                                                         0.968505       0.078016
                                                         1.999950      -0.382202
                                                         3.031517       0.264338

                          1       3    4s                0.078430       0.184743
                                                         0.124587      -0.127742
                                                         0.197908       0.012013
                                                         0.443216      -0.000099
                                                         0.968505       0.004674
                                                         1.999950       0.000000
                                                         3.031517       0.000000

                          1       4    3px               0.078430       0.034902
                                                         0.124587       0.000000
                                                         0.197908       0.099761
                                                         0.443216       0.006256
                                                         0.968505      -0.348836
                                                         1.999950       0.359089
                                                         3.031517      -0.188524
                          1       4    3py               0.078430       0.034902
                                                         0.124587       0.000000
                                                         0.197908       0.099761
                                                         0.443216       0.006256
                                                         0.968505      -0.348836
                                                         1.999950       0.359089
                                                         3.031517      -0.188524
                          1       4    3pz               0.078430       0.034902
                                                         0.124587       0.000000
                                                         0.197908       0.099761
                                                         0.443216       0.006256
                                                         0.968505      -0.348836
                                                         1.999950       0.359089
                                                         3.031517      -0.188524

                          1       5    4px               0.078430       0.097746
                                                         0.124587       0.000000
                                                         0.197908      -0.429430
                                                         0.443216       0.341093
                                                         0.968505       0.046081
                                                         1.999950       0.627118
                                                         3.031517      -0.590419
                          1       5    4py               0.078430       0.097746
                                                         0.124587       0.000000
                                                         0.197908      -0.429430
                                                         0.443216       0.341093
                                                         0.968505       0.046081
                                                         1.999950       0.627118
                                                         3.031517      -0.590419
                          1       5    4pz               0.078430       0.097746
                                                         0.124587       0.000000
                                                         0.197908      -0.429430
                                                         0.443216       0.341093
                                                         0.968505       0.046081
                                                         1.999950       0.627118
                                                         3.031517      -0.590419

                          1       6    5px               0.078430      -0.001570
                                                         0.124587       0.001954
                                                         0.197908       0.206445
                                                         0.443216      -0.018805
                                                         0.968505      -0.211923
                                                         1.999950       0.000000
                                                         3.031517       0.000000
                          1       6    5py               0.078430      -0.001570
                                                         0.124587       0.001954
                                                         0.197908       0.206445
                                                         0.443216      -0.018805
                                                         0.968505      -0.211923
                                                         1.999950       0.000000
                                                         3.031517       0.000000
                          1       6    5pz               0.078430      -0.001570
                                                         0.124587       0.001954
                                                         0.197908       0.206445
                                                         0.443216      -0.018805
                                                         0.968505      -0.211923
                                                         1.999950       0.000000
                                                         3.031517       0.000000

                          1       7    4dx2              0.078430       0.000383
                                                         0.124587       0.000000
                                                         0.197908       0.015833
                                                         0.443216       0.133361
                                                         0.968505       0.658335
                                                         1.999950       1.669819
                                                         3.031517      -0.724890
                          1       7    4dxy              0.078430       0.000664
                                                         0.124587       0.000000
                                                         0.197908       0.027424
                                                         0.443216       0.230988
                                                         0.968505       1.140270
                                                         1.999950       2.892211
                                                         3.031517      -1.255545
                          1       7    4dxz              0.078430       0.000664
                                                         0.124587       0.000000
                                                         0.197908       0.027424
                                                         0.443216       0.230988
                                                         0.968505       1.140270
                                                         1.999950       2.892211
                                                         3.031517      -1.255545
                          1       7    4dy2              0.078430       0.000383
                                                         0.124587       0.000000
                                                         0.197908       0.015833
                                                         0.443216       0.133361
                                                         0.968505       0.658335
                                                         1.999950       1.669819
                                                         3.031517      -0.724890
                          1       7    4dyz              0.078430       0.000664
                                                         0.124587       0.000000
                                                         0.197908       0.027424
                                                         0.443216       0.230988
                                                         0.968505       1.140270
                                                         1.999950       2.892211
                                                         3.031517      -1.255545
                          1       7    4dz2              0.078430       0.000383
                                                         0.124587       0.000000
                                                         0.197908       0.015833
                                                         0.443216       0.133361
                                                         0.968505       0.658335
                                                         1.999950       1.669819
                                                         3.031517      -0.724890

                          1       8    5dx2              0.078430       0.020473
                                                         0.124587       0.000000
                                                         0.197908      -0.012652
                                                         0.443216       0.028782
                                                         0.968505      -0.233434
                                                         1.999950      -0.267526
                                                         3.031517       0.086285
                          1       8    5dxy              0.078430       0.035460
                                                         0.124587       0.000000
                                                         0.197908      -0.021914
                                                         0.443216       0.049852
                                                         0.968505      -0.404320
                                                         1.999950      -0.463369
                                                         3.031517       0.149451
                          1       8    5dxz              0.078430       0.035460
                                                         0.124587       0.000000
                                                         0.197908      -0.021914
                                                         0.443216       0.049852
                                                         0.968505      -0.404320
                                                         1.999950      -0.463369
                                                         3.031517       0.149451
                          1       8    5dy2              0.078430       0.020473
                                                         0.124587       0.000000
                                                         0.197908      -0.012652
                                                         0.443216       0.028782
                                                         0.968505      -0.233434
                                                         1.999950      -0.267526
                                                         3.031517       0.086285
                          1       8    5dyz              0.078430       0.035460
                                                         0.124587       0.000000
                                                         0.197908      -0.021914
                                                         0.443216       0.049852
                                                         0.968505      -0.404320
                                                         1.999950      -0.463369
                                                         3.031517       0.149451
                          1       8    5dz2              0.078430       0.020473
                                                         0.124587       0.000000
                                                         0.197908      -0.012652
                                                         0.443216       0.028782
                                                         0.968505      -0.233434
                                                         1.999950      -0.267526
                                                         3.031517       0.086285

                          1       9    6dx2              0.078430      -0.022301
                                                         0.124587       0.003060
                                                         0.197908       0.013799
                                                         0.443216       0.027305
                                                         0.968505       0.116357
                                                         1.999950       0.000000
                                                         3.031517       0.000000
                          1       9    6dxy              0.078430      -0.038626
                                                         0.124587       0.005300
                                                         0.197908       0.023901
                                                         0.443216       0.047294
                                                         0.968505       0.201536
                                                         1.999950       0.000000
                                                         3.031517       0.000000
                          1       9    6dxz              0.078430      -0.038626
                                                         0.124587       0.005300
                                                         0.197908       0.023901
                                                         0.443216       0.047294
                                                         0.968505       0.201536
                                                         1.999950       0.000000
                                                         3.031517       0.000000
                          1       9    6dy2              0.078430      -0.022301
                                                         0.124587       0.003060
                                                         0.197908       0.013799
                                                         0.443216       0.027305
                                                         0.968505       0.116357
                                                         1.999950       0.000000
                                                         3.031517       0.000000
                          1       9    6dyz              0.078430      -0.038626
                                                         0.124587       0.005300
                                                         0.197908       0.023901
                                                         0.443216       0.047294
                                                         0.968505       0.201536
                                                         1.999950       0.000000
                                                         3.031517       0.000000
                          1       9    6dz2              0.078430      -0.022301
                                                         0.124587       0.003060
                                                         0.197908       0.013799
                                                         0.443216       0.027305
                                                         0.968505       0.116357
                                                         1.999950       0.000000
                                                         3.031517       0.000000

                          1      10    5fx3              0.078430       0.003714
                                                         0.124587       0.000000
                                                         0.197908      -0.023210
                                                         0.443216      -0.110957
                                                         0.968505      -0.238740
                                                         1.999950       0.302134
                                                         3.031517       0.028066
                          1      10    5fx2y             0.078430       0.008305
                                                         0.124587       0.000000
                                                         0.197908      -0.051898
                                                         0.443216      -0.248108
                                                         0.968505      -0.533839
                                                         1.999950       0.675592
                                                         3.031517       0.062758
                          1      10    5fx2z             0.078430       0.008305
                                                         0.124587       0.000000
                                                         0.197908      -0.051898
                                                         0.443216      -0.248108
                                                         0.968505      -0.533839
                                                         1.999950       0.675592
                                                         3.031517       0.062758
                          1      10    5fxy2             0.078430       0.008305
                                                         0.124587       0.000000
                                                         0.197908      -0.051898
                                                         0.443216      -0.248108
                                                         0.968505      -0.533839
                                                         1.999950       0.675592
                                                         3.031517       0.062758
                          1      10    5fxyz             0.078430       0.014385
                                                         0.124587       0.000000
                                                         0.197908      -0.089890
                                                         0.443216      -0.429735
                                                         0.968505      -0.924637
                                                         1.999950       1.170160
                                                         3.031517       0.108700
                          1      10    5fxz2             0.078430       0.008305
                                                         0.124587       0.000000
                                                         0.197908      -0.051898
                                                         0.443216      -0.248108
                                                         0.968505      -0.533839
                                                         1.999950       0.675592
                                                         3.031517       0.062758
                          1      10    5fy3              0.078430       0.003714
                                                         0.124587       0.000000
                                                         0.197908      -0.023210
                                                         0.443216      -0.110957
                                                         0.968505      -0.238740
                                                         1.999950       0.302134
                                                         3.031517       0.028066
                          1      10    5fy2z             0.078430       0.008305
                                                         0.124587       0.000000
                                                         0.197908      -0.051898
                                                         0.443216      -0.248108
                                                         0.968505      -0.533839
                                                         1.999950       0.675592
                                                         3.031517       0.062758
                          1      10    5fyz2             0.078430       0.008305
                                                         0.124587       0.000000
                                                         0.197908      -0.051898
                                                         0.443216      -0.248108
                                                         0.968505      -0.533839
                                                         1.999950       0.675592
                                                         3.031517       0.062758
                          1      10    5fz3              0.078430       0.003714
                                                         0.124587       0.000000
                                                         0.197908      -0.023210
                                                         0.443216      -0.110957
                                                         0.968505      -0.238740
                                                         1.999950       0.302134
                                                         3.031517       0.028066

                          1      11    6fx3              0.078430      -0.004036
                                                         0.124587       0.003438
                                                         0.197908       0.014218
                                                         0.443216       0.089167
                                                         0.968505       0.517857
                                                         1.999950       0.000000
                                                         3.031517       0.000000
                          1      11    6fx2y             0.078430      -0.009024
                                                         0.124587       0.007687
                                                         0.197908       0.031792
                                                         0.443216       0.199384
                                                         0.968505       1.157964
                                                         1.999950       0.000000
                                                         3.031517       0.000000
                          1      11    6fx2z             0.078430      -0.009024
                                                         0.124587       0.007687
                                                         0.197908       0.031792
                                                         0.443216       0.199384
                                                         0.968505       1.157964
                                                         1.999950       0.000000
                                                         3.031517       0.000000
                          1      11    6fxy2             0.078430      -0.009024
                                                         0.124587       0.007687
                                                         0.197908       0.031792
                                                         0.443216       0.199384
                                                         0.968505       1.157964
                                                         1.999950       0.000000
                                                         3.031517       0.000000
                          1      11    6fxyz             0.078430      -0.015630
                                                         0.124587       0.013315
                                                         0.197908       0.055065
                                                         0.443216       0.345343
                                                         0.968505       2.005653
                                                         1.999950       0.000000
                                                         3.031517       0.000000
                          1      11    6fxz2             0.078430      -0.009024
                                                         0.124587       0.007687
                                                         0.197908       0.031792
                                                         0.443216       0.199384
                                                         0.968505       1.157964
                                                         1.999950       0.000000
                                                         3.031517       0.000000
                          1      11    6fy3              0.078430      -0.004036
                                                         0.124587       0.003438
                                                         0.197908       0.014218
                                                         0.443216       0.089167
                                                         0.968505       0.517857
                                                         1.999950       0.000000
                                                         3.031517       0.000000
                          1      11    6fy2z             0.078430      -0.009024
                                                         0.124587       0.007687
                                                         0.197908       0.031792
                                                         0.443216       0.199384
                                                         0.968505       1.157964
                                                         1.999950       0.000000
                                                         3.031517       0.000000
                          1      11    6fyz2             0.078430      -0.009024
                                                         0.124587       0.007687
                                                         0.197908       0.031792
                                                         0.443216       0.199384
                                                         0.968505       1.157964
                                                         1.999950       0.000000
                                                         3.031517       0.000000
                          1      11    6fz3              0.078430      -0.004036
                                                         0.124587       0.003438
                                                         0.197908       0.014218
                                                         0.443216       0.089167
                                                         0.968505       0.517857
                                                         1.999950       0.000000
                                                         3.031517       0.000000

       Atomic covalent radius [Angstrom]:                                  1.490

       Atomic van der Waals radius [Angstrom]:                             1.550

     GTH Potential information for                                       GTH-PBE

       Description:                       Goedecker-Teter-Hutter pseudopotential
                                           Goedecker et al., PRB 54, 1703 (1996)
                                          Hartwigsen et al., PRB 58, 3641 (1998)
                                                      Krack, TCA 114, 145 (2005)

       Gaussian exponent of the core charge distribution:               1.538935
       Electronic configuration (s p d ...):                           2   0  10

       Parameters of the local part of the GTH pseudopotential:

                          rloc        C1          C2          C3          C4
                        0.570000    8.467847

       Parameters of the non-local part of the GTH (SOC) pseudopotential:

                   l      r(l)      h(i,j,l)
                                    k(i,j,l)
                   0    0.529787    7.371243   -2.969944
                                   -2.969944    3.834181
                   1    0.635166    3.551161   -1.722909    0.000000
                                   -1.722909    2.038574    0.000000
                                    0.000000    0.000000    0.000000
                                    0.976278   -1.294310    0.554904
                                   -1.294310    2.455279   -1.313143
                                    0.554904   -1.313143    0.933258
                   2    0.407985   -8.613980    5.007561
                                    5.007561   -5.678041
                                   -0.097944    0.262020
                                    0.262020   -0.297103


 MOLECULE KIND INFORMATION


 All atoms are their own molecule, skipping detailed information


 TOTAL NUMBERS AND MAXIMUM NUMBERS

  Total number of            - Atomic kinds:                                   1
                             - Atoms:                                          2
                             - Shell sets:                                     2
                             - Shells:                                        22
                             - Primitive Cartesian functions:                 14
                             - Cartesian basis functions:                    100
                             - Spherical basis functions:                     82

  Maximum angular momentum of- Orbital basis functions:                        3
                             - Local part of the GTH pseudopotential:          0
                             - Non-local part of the GTH pseudopotential:      5


 MODULE QUICKSTEP: ATOMIC COORDINATES IN ANGSTROM

   Atom Kind Element         X             Y             Z       Z(eff)     Mass
      1    1 Hg   80      0.000000      0.000000      0.000000  12.0000 200.5900
      2    1 Hg   80      2.051525      2.051525      1.774155  12.0000 200.5900



 SCF PARAMETERS         Density guess:                                    ATOMIC
                        --------------------------------------------------------
                        max_scf:                                             500
                        max_scf_history:                                       0
                        max_diis:                                              4
                        --------------------------------------------------------
                        eps_scf:                                        1.00E-09
                        eps_scf_history:                                0.00E+00
                        eps_diis:                                       1.00E-01
                        eps_eigval:                                     1.00E-05
                        --------------------------------------------------------
                        level_shift [a.u.]:                             0.000000
                        added MOs                                        70    0
                        --------------------------------------------------------
                        Mixing method:                            BROYDEN_MIXING
                                                charge density mixing in g-space
                        --------------------------------------------------------
                        Smear method:                                FERMI_DIRAC
                        Electronic temperature [K]:                        300.0
                        Electronic temperature [a.u.]:                  9.50E-04
                        Accuracy threshold:                             1.00E-10
                        --------------------------------------------------------
                        No outer SCF

 PW_GRID| Information for grid number                                          1
 PW_GRID| Grid distributed over                                     8 processors
 PW_GRID| Real space group dimensions                                     8    1
 PW_GRID| the grid is blocked:                                                NO
 PW_GRID| Cutoff [a.u.]                                                    500.0
 PW_GRID| spherical cutoff:                                                   NO
 PW_GRID|   Bounds   1            -40      39                Points:          80
 PW_GRID|   Bounds   2            -40      39                Points:          80
 PW_GRID|   Bounds   3            -36      35                Points:          72
 PW_GRID| Volume element (a.u.^3)  0.8748E-03     Volume (a.u.^3)       403.1176
 PW_GRID| Grid span                                                    FULLSPACE
 PW_GRID|   Distribution                         Average         Max         Min
 PW_GRID|   G-Vectors                            57600.0       57600       57600
 PW_GRID|   G-Rays                                 720.0         720         720
 PW_GRID|   Real Space Points                    57600.0       57600       57600

 PW_GRID| Information for grid number                                          2
 PW_GRID| Number of the reference grid                                         1
 PW_GRID| Grid distributed over                                     8 processors
 PW_GRID| Real space group dimensions                                     8    1
 PW_GRID| the grid is blocked:                                                NO
 PW_GRID| Cutoff [a.u.]                                                    166.7
 PW_GRID| spherical cutoff:                                                   NO
 PW_GRID|   Bounds   1            -22      22                Points:          45
 PW_GRID|   Bounds   2            -22      22                Points:          45
 PW_GRID|   Bounds   3            -20      19                Points:          40
 PW_GRID| Volume element (a.u.^3)  0.4977E-02     Volume (a.u.^3)       403.1176
 PW_GRID| Grid span                                                    FULLSPACE
 PW_GRID|   Distribution                         Average         Max         Min
 PW_GRID|   G-Vectors                            10125.0       10305        9990
 PW_GRID|   G-Rays                                 225.0         229         222
 PW_GRID|   Real Space Points                    10125.0       10800        9000

 PW_GRID| Information for grid number                                          3
 PW_GRID| Number of the reference grid                                         1
 PW_GRID| Grid distributed over                                     8 processors
 PW_GRID| Real space group dimensions                                     8    1
 PW_GRID| the grid is blocked:                                                NO
 PW_GRID| Cutoff [a.u.]                                                     55.6
 PW_GRID| spherical cutoff:                                                   NO
 PW_GRID|   Bounds   1            -13      13                Points:          27
 PW_GRID|   Bounds   2            -13      13                Points:          27
 PW_GRID|   Bounds   3            -12      11                Points:          24
 PW_GRID| Volume element (a.u.^3)  0.2304E-01     Volume (a.u.^3)       403.1176
 PW_GRID| Grid span                                                    FULLSPACE
 PW_GRID|   Distribution                         Average         Max         Min
 PW_GRID|   G-Vectors                             2187.0        2295        2106
 PW_GRID|   G-Rays                                  81.0          85          78
 PW_GRID|   Real Space Points                     2187.0        2592        1944

 PW_GRID| Information for grid number                                          4
 PW_GRID| Number of the reference grid                                         1
 PW_GRID| Grid distributed over                                     8 processors
 PW_GRID| Real space group dimensions                                     8    1
 PW_GRID| the grid is blocked:                                                NO
 PW_GRID| Cutoff [a.u.]                                                     18.5
 PW_GRID| spherical cutoff:                                                   NO
 PW_GRID|   Bounds   1             -7       7                Points:          15
 PW_GRID|   Bounds   2             -7       7                Points:          15
 PW_GRID|   Bounds   3             -7       7                Points:          15
 PW_GRID| Volume element (a.u.^3)  0.1194         Volume (a.u.^3)       403.1176
 PW_GRID| Grid span                                                    FULLSPACE
 PW_GRID|   Distribution                         Average         Max         Min
 PW_GRID|   G-Vectors                              421.9         435         405
 PW_GRID|   G-Rays                                  28.1          29          27
 PW_GRID|   Real Space Points                      421.9         450         225

 POISSON| Solver                                                        PERIODIC
 POISSON| Periodicity                                                        XYZ

 RS_GRID| Information for grid number                                          1
 RS_GRID|   Bounds   1            -40      39                Points:          80
 RS_GRID|   Bounds   2            -40      39                Points:          80
 RS_GRID|   Bounds   3            -36      35                Points:          72
 RS_GRID| Real space fully replicated
 RS_GRID| Group size                                                           1

 RS_GRID| Information for grid number                                          2
 RS_GRID|   Bounds   1            -22      22                Points:          45
 RS_GRID|   Bounds   2            -22      22                Points:          45
 RS_GRID|   Bounds   3            -20      19                Points:          40
 RS_GRID| Real space fully replicated
 RS_GRID| Group size                                                           1

 RS_GRID| Information for grid number                                          3
 RS_GRID|   Bounds   1            -13      13                Points:          27
 RS_GRID|   Bounds   2            -13      13                Points:          27
 RS_GRID|   Bounds   3            -12      11                Points:          24
 RS_GRID| Real space fully replicated
 RS_GRID| Group size                                                           1

 RS_GRID| Information for grid number                                          4
 RS_GRID|   Bounds   1             -7       7                Points:          15
 RS_GRID|   Bounds   2             -7       7                Points:          15
 RS_GRID|   Bounds   3             -7       7                Points:          15
 RS_GRID| Real space fully replicated
 RS_GRID| Group size                                                           1

 Number of electrons:                                                         24
 Number of occupied orbitals:                                                 12
 Number of molecular orbitals:                                                82

 Number of orbital functions:                                                 82
 Number of independent orbital functions:                                     82

 Extrapolation method: initial_guess

 Atomic guess: The first density matrix is obtained in terms of atomic orbitals
               and electronic configurations assigned to each atomic kind

 Guess for atomic kind: Hg

 Electronic structure
    Total number of core electrons                                         68.00
    Total number of valence electrons                                      12.00
    Total number of electrons                                              80.00
    Multiplicity                                                   not specified
    S   [  2.00  2.00  2.00  2.00  2.00] 2.00
    P   [  6.00  6.00  6.00  6.00]
    D   [ 10.00 10.00]10.00
    F   [ 14.00]


 *******************************************************************************
                  Iteration          Convergence                     Energy [au]
 *******************************************************************************
                          1         2.00527                     -40.710019945297
                          2         1.70916                     -40.743868184856
                          3        0.573258E-01                 -40.877524649655
                          4        0.630865E-02                 -40.877709344646
                          5        0.584046E-05                 -40.877712134735
[...]
 -------------------------------------------------------------------------------
 count for grid        1:          31280          cutoff [a.u.]          500.00
 count for grid        2:          87846          cutoff [a.u.]          166.67
 count for grid        3:          55272          cutoff [a.u.]           55.56
 count for grid        4:          46532          cutoff [a.u.]           18.52
 total gridlevel count  :         220930

 -------------------------------------------------------------------------------
 -                                                                             -
 -                         MESSAGE PASSING PERFORMANCE                         -
 -                                                                             -
 -------------------------------------------------------------------------------

 ROUTINE             CALLS      AVE VOLUME [Bytes]
 MP_Group                5
 MP_Bcast           285909                   1995.
 MP_Allreduce       109385                     65.
 MP_Sync                 4
 MP_Alltoall           563                2542791.
 MP_SendRecv           910                 147775.
 MP_ISendRecv          875                 145427.
 MP_Wait            197291
 MP_comm_split           3
 MP_ISend           208320                   1599.
 MP_IRecv           333312                    986.
 -------------------------------------------------------------------------------


 -------------------------------------------------------------------------------
 -                                                                             -
 -                           R E F E R E N C E S                               -
 -                                                                             -
 -------------------------------------------------------------------------------
 
 CP2K version 2025.1 (Development Version), the CP2K developers group (2025).
 CP2K is freely available from https://www.cp2k.org/ .
 
 T. D. Kuehne, M. Iannuzzi, M. Del Ben, V. V. Rybkin, P. Seewald, F. Stein, T. 
 Laino, R. Z. Khaliullin, O. Schuett, F. Schiffmann, D. Golze, J. Wilhelm, S. 
 Chulkov, M. H. Bani-Hashemian, V. Weber, U. Borstnik, M. Taillefumier, A. S. 
 Jakobovits, A. Lazzaro, H. Pabst, T. Mueller, R. Schade, M. Guidon, S. 
 Andermatt, N. Holmberg, G. K. Schenter, A. Hehn, A. Bussy, F. Belleflamme, G. 
 Tabacchi, A. Gloess, M. Lass, I. Bethune, C. J. Mundy, C. Plessl, M. Watkins, 
 J. VandeVondele, M. Krack, J. Hutter.
 J. Chem. Phys. 152, 194103 (2020).
 CP2K: An electronic structure and molecular dynamics software package - 
 Quickstep: Efficient and accurate electronic structure calculations.
 https://doi.org/10.1063/5.0007045

 O. Schuett, P. Messmer, J. Hutter, J. VandeVondele.
 Electronic Structure Calculations on Graphics Processing Units, 173-190 (2016).
 GPU-Accelerated Sparse Matrix-Matrix Multiplication for Linear Scaling Density 
 Functional Theory.
 https://doi.org/10.1002/9781118670712.ch8

 J. Hutter, M. Iannuzzi, F. Schiffmann, J. VandeVondele.
 WIREs Comput Mol Sci. 4, 15-25 (2014).
 CP2K: atomistic simulations of condensed matter systems.
 https://doi.org/10.1002/wcms.1159

 U. Borstnik, J. VandeVondele, V. Weber, J. Hutter.
 Parallel Comput. 40, 47-58 (2014).
 Sparse matrix multiplication: The distributed block-compressed sparse row 
 library.
 https://doi.org/10.1016/j.parco.2014.03.012

 J. VandeVondele, J. Hutter.
 J. Chem. Phys. 127, 114105 (2007).
 Gaussian basis sets for accurate calculations on molecular systems in gas and 
 condensed phases.
 https://doi.org/10.1063/1.2770708

 J. VandeVondele, M. Krack, F. Mohamed, M. Parrinello, T. Chassaing, J. Hutter.
 Comput. Phys. Commun. 167, 103-128 (2005).
 QUICKSTEP: Fast and accurate density functional calculations using a mixed 
 Gaussian and plane waves approach.
 https://doi.org/10.1016/j.cpc.2004.12.014

 M. Krack.
 Theor. Chem. Acc. 114, 145-152 (2005).
 Pseudopotentials for H to Kr optimized for gradient-corrected 
 exchange-correlation functionals.
 https://doi.org/10.1007/s00214-005-0655-y

 M. Frigo, S. G. Johnson.
 Proc. IEEE 93, 216-231 (2005).
 The design and implementation of FFTW3.
 https://doi.org/10.1109/JPROC.2004.840301

 C. Hartwigsen, S. Goedecker, J. Hutter.
 Phys. Rev. B 58, 3641-3662 (1998).
 Relativistic separable dual-space Gaussian pseudopotentials from H to Rn.
 https://doi.org/10.1103/PhysRevB.58.3641

 G. Lippert, J. Hutter, M. Parrinello.
 Mol. Phys. 92, 477-487 (1997).
 A hybrid Gaussian and plane wave density functional scheme.
 https://doi.org/10.1080/002689797170220

 S. Goedecker, M. Teter, J. Hutter.
 Phys. Rev. B 54, 1703-1710 (1996).
 Separable dual-space Gaussian pseudopotentials.
 https://doi.org/10.1103/PhysRevB.54.1703

 J. P. Perdew, K. Burke, M. Ernzerhof.
 Phys. Rev. Lett. 77, 3865-3868 (1996).
 Generalized gradient approximation made simple.
 https://doi.org/10.1103/PhysRevLett.77.3865


 -------------------------------------------------------------------------------
 -                                                                             -
 -                                T I M I N G                                  -
 -                                                                             -
 -------------------------------------------------------------------------------
 SUBROUTINE                       CALLS  ASD         SELF TIME        TOTAL TIME
                                MAXIMUM       AVERAGE  MAXIMUM  AVERAGE  MAXIMUM
 CP2K                                 1  1.0    0.014    0.019  419.761  419.761
 qs_energies                          1  2.0    0.004    0.004  419.495  419.505
 scf_env_do_scf                       1  3.0    0.000    0.000  352.621  352.622
 scf_env_do_scf_inner_loop           31  4.0    0.031    0.033  352.621  352.622
 mp_alltoall_i22                 135464  8.9  285.372  349.695  285.372  349.695
 qs_scf_new_mos_kp                   31  5.0    0.000    0.000  337.498  339.343
 do_general_diag_kp                  31  6.0    0.175    0.201  337.497  339.343
 dbcsr_desymmetrize_deep          78968  7.7    1.235    1.695  214.363  260.954
 rskp_transform                   19172  7.2   44.197  241.604   44.197  241.604
 dbcsr_complete_redistribute      56496  8.4    2.013    2.427   93.248  110.651
 kpoint_density_transform            31  7.0    0.077    0.093  100.599  100.866
 copy_fm_to_dbcsr                 15872  8.0    0.091    0.102   80.796   97.937
 transform_dmat                    7936  8.0   17.182   93.684   17.182   93.684
 qs_energies_properties               1  3.0    0.000    0.000   65.031   65.040
 post_scf_bandstructure               1  4.0    0.000    0.000   65.031   65.040
 rsmat_to_kp                       3300  7.0    0.053    0.059   45.264   45.310
 soc                                  1  5.0    0.001    0.001   29.523   29.523
 H_KS_spinor_kp                       1  6.0    0.012    0.014   28.800   29.249
 create_and_init_bs_env               1  5.0    0.000    0.000   25.546   25.546
 compute_cfm_mo_coeff_kp_and_ei       1  6.0    0.010    0.012   25.543   25.543
 copy_dbcsr_to_fm                 40624  7.1    0.413    0.460   19.786   20.063
 cp_cfm_heevd                      3964  7.8    0.006    0.006   17.456   17.494
 cp_cfm_heevd_base                 3964  8.8   17.450   17.489   17.450   17.489
 qs_ks_update_qs_env                 31  5.0    0.000    0.000    4.253   12.484
 rebuild_ks_matrix                   31  6.0    0.000    0.000    2.935   11.165
 qs_ks_build_kohn_sham_matrix        31  7.0    0.060    0.061    2.934   11.165
 cp_cfm_geeig_canon                1652  7.0    0.016    0.017   10.688   10.737
 sum_up_and_integrate                31  8.0    0.000    0.000    2.164   10.343
 integrate_v_rspace                  31  9.0    0.049    0.261    2.162   10.342
 dos_pdos_ldos                        1  5.0    0.008    0.009    9.962    9.972
 grid_integrate_task_list            31 10.0    1.867    9.884    1.867    9.884
 SOC_ev                             660  6.0    0.017    0.017    9.352    9.367
 transfer_rs2pw                     130  8.0    0.002    0.002    6.658    8.185
 transfer_rs2pw_500                  34  8.9    0.055    0.062    6.610    8.130
 mp_sendrecv_dv                     910 10.0    6.590    8.120    6.590    8.120
 qs_rho_update_rho_low               32  5.0    0.000    0.000    7.536    7.559
 calculate_rho_elec                  32  6.0    0.021    0.046    7.536    7.559
 density_rs2pw                       32  7.0    0.001    0.001    6.079    7.445
 grid_collocate_task_list            32  7.0    1.434    7.150    1.434    7.150
 cp_fm_start_copy_general         47616  7.3    0.874    1.197    5.188    5.303
 dbcsr_finalize                  186623  8.6    0.676    0.811    4.649    5.299
 mp_alltoall_d11v                406392  9.5    3.949    4.304    3.949    4.304
 mp_cart_sub                      81250  9.1    3.378    3.407    3.378    3.407
 hybrid_alltoall_any              78968  8.7    0.314    0.350    2.752    3.043
 dbcsr_merge_all                  59913 10.4    1.497    1.809    2.612    2.946
 mp_allgather_i                   95232  8.3    2.637    2.772    2.637    2.772
 cp_dbcsr_alloc_block_from_nbl    22732  6.6    0.421    2.017    0.523    2.444
 mp_cart_create                   40630  9.1    2.044    2.148    2.044    2.148
 V_SOC_xyz_from_pseudopotential       1  6.0    0.033    0.036    0.723    2.125
 cp_cfm_gemm                       8256  8.4    2.042    2.077    2.042    2.077
 mp_sum_iv                         1340  8.9    1.517    1.990    1.517    1.990
 mp_alltoall_i11v                248456  9.1    1.795    1.934    1.795    1.934
 alloc_cfm_double_array_1d            1  7.0    0.003    0.003    1.438    1.888
 create_cfm_double                  660  8.0    0.019    0.024    1.435    1.885
 write_kpoints_restart               31  5.0    0.010    0.021    1.861    1.861
 dbcsr_dot                        70619  8.0    0.356    0.751    1.469    1.517
 dbcsr_work_create               138881  8.9    0.779    0.853    1.317    1.502
 dbcsr_create_new                295477  8.1    1.112    1.209    1.343    1.464
 parallel_gemm_cfm                 3300  7.0    0.004    0.004    1.399    1.430
 parallel_gemm_cfm_gemm            3300  8.0    0.004    0.004    1.395    1.426
 evaluate_core_matrix_traces         31  6.0    0.000    0.000    1.318    1.318
 calculate_ptrace_kp                 62  7.0    0.051    0.053    1.318    1.318
 mp_bcast_iv                     190491  8.3    1.149    1.317    1.149    1.317
 mp_sum_d                         71285  8.9    1.055    1.228    1.055    1.228
 dbcsr_iterator_start            475349  9.0    0.948    1.015    1.080    1.199
 add_cfm_submat                    5280  7.0    0.046    0.047    1.094    1.173
 self_consistency_check              31  5.0    0.049    0.051    1.084    1.153
 dbcsr_copy                       91046  6.9    0.483    0.605    0.831    1.133
 qs_energies_init_hamiltonians        1  3.0    0.000    0.000    1.104    1.104
 dbcsr_data_new                 1497222  9.8    0.876    1.080    0.876    1.080
 cp_sm_mix                        35309  6.0    0.125    0.331    0.969    1.059
 dbcsr_work_destroy_all          138881  9.9    0.632    0.665    0.979    1.036
 cp_fm_to_fm_submat               10560  8.0    0.925    1.007    0.925    1.007
 copy_dbcsr_to_fm_bc              40624  8.1    0.407    0.430    0.892    0.921
 tree_to_linear_d                 56496 11.4    0.864    0.913    0.864    0.913
 build_core_hamiltonian_matrix        1  4.0    0.004    0.004    0.237    0.906
 mp_max_d                         35311  7.0    0.759    0.898    0.759    0.898
 kpoint_set_mo_occupation            31  7.0    0.792    0.796    0.855    0.883
 qs_env_update_s_mstruct              1  4.0    0.000    0.000    0.724    0.873
 calculate_rho_core                   1  5.0    0.001    0.002    0.681    0.861
 dbcsr_data_release             2130507 10.2    0.773    0.849    0.773    0.849
 build_core_ppnl                      2  6.0    0.237    0.797    0.237    0.797
 copy_fm_to_dbcsr_bc              15872  9.0    0.205    0.229    0.696    0.771
 dbcsr_destroy                   221442  8.1    0.356    0.378    0.697    0.760
 add_to_DOS_PDOS                   1320  6.5    0.743    0.756    0.743    0.756
 cp_fm_write_unformatted           2278  6.0    0.483    0.701    0.494    0.745
 dbcsr_iterator_stop             475349  9.0    0.591    0.624    0.693    0.731
 dbcsr_add_d                       3417  7.0    0.003    0.004    0.237    0.615
 dbcsr_add_anytype                 3417  8.0    0.013    0.048    0.234    0.611
 fft_wrap_pw1pw2                    563 10.0    0.004    0.004    0.531    0.563
 dbcsr_set                       176973  7.7    0.160    0.171    0.274    0.558
 dbcsr_reserve_blocks             38604  9.0    0.163    0.486    0.182    0.521
 fft_wrap_pw1pw2_500                374 11.3    0.037    0.038    0.486    0.518
 cp_fm_finish_copy_general        19840  7.8    0.439    0.475    0.466    0.518
 init_scf_run                         1  3.0    0.000    0.000    0.463    0.510
 scf_env_initial_rho_setup            1  4.0    0.000    0.000    0.463    0.510
 fft3d_ps                           563 12.0    0.175    0.178    0.426    0.461
 quick_finalize                   78968  9.7    0.206    0.270    0.336    0.454
 kpoint_density_matrices             31  7.0    0.018    0.018    0.379    0.413
 mp_comm_free                    122569  9.1    0.363    0.402    0.363    0.402
 dbcsr_copy_into_existing         17011  9.7    0.133    0.299    0.227    0.396
 dbcsr_zero                      176973  8.7    0.114    0.387    0.114    0.387
 parallel_gemm_fm                  3968  8.0    0.004    0.004    0.352    0.386
 parallel_gemm_fm_gemm             3968  9.0    0.004    0.004    0.349    0.382
 cp_fm_gemm                        3968 10.0    0.345    0.379    0.345    0.379
 compute_proj_mo_on_kind            660  6.0    0.016    0.016    0.322    0.352
 mp_bcast_im                      95232  8.3    0.274    0.349    0.274    0.349
 qs_vxc_create                       31  8.0    0.000    0.001    0.346    0.347
 xc_vxc_pw_create                    31  9.0    0.015    0.016    0.346    0.346
 mp_waitall_1                    197291  8.4    0.173    0.341    0.173    0.341
 gspace_mixing                       30  5.0    0.013    0.013    0.319    0.319
 potential_pw2rs                     31 10.0    0.002    0.002    0.247    0.275
 mixing_allocate                      1  3.0    0.007    0.007    0.070    0.273
 broyden_mixing                      30  6.0    0.258    0.262    0.268    0.269
 calculate_first_density_matrix       1  5.0    0.001    0.001    0.211    0.258
 calculate_atomic_block_dm            1  6.0    0.001    0.001    0.209    0.256
 mp_alltoall_z22v                   563 14.0    0.207    0.246    0.207    0.246
 build_overlap_matrix_low             1  5.0    0.016    0.049    0.052    0.221
 xc_pw_derive                       186 11.0    0.001    0.001    0.213    0.216
 build_kinetic_matrix_low             1  5.0    0.015    0.047    0.046    0.186
 xc_rho_set_and_dset_create          31 10.0    0.010    0.011    0.182    0.184
 dbcsr_iterator_seek             475349 10.0    0.133    0.184    0.133    0.184
 dbcsr_sort_indices              174068 11.0    0.097    0.172    0.097    0.172
 yz_to_x                            253 12.8    0.015    0.016    0.135    0.170
 calculate_ecore_overlap              1  4.0    0.000    0.000    0.134    0.165
 dbcsr_make_index_exist          295477  9.1    0.146    0.163    0.146    0.163
 xc_pw_divergence                    31 10.0    0.000    0.000    0.145    0.148
 build_core_ppl                       1  5.0    0.028    0.145    0.028    0.145
 transfer_pw2rs                     125 11.0    0.001    0.001    0.143    0.144
 mp_isend_dv                      47616  8.3    0.129    0.140    0.129    0.140
 dbcsr_scale_anytype               3418  9.0    0.025    0.033    0.127    0.136
 qs_env_rebuild_rho                   1  5.0    0.000    0.000    0.034    0.135
 qs_rho_rebuild                       1  6.0    0.003    0.003    0.034    0.135
 dbcsr_reserve_all_blocks         15872 10.0    0.023    0.029    0.112    0.132
 merge_index                      59913 11.4    0.109    0.126    0.109    0.126
 qs_scf_ensure_work_matrices          1  3.0    0.000    0.000    0.101    0.125
 dbcsr_data_copy_aa2              56496 11.2    0.058    0.122    0.058    0.122
 x_to_yz                            310 13.2    0.025    0.026    0.112    0.115
 transfer_pw2rs_500                  32 11.9    0.054    0.059    0.106    0.108
 parser_read_line                  8531  4.0    0.003    0.003    0.105    0.107
 parser_read_line_low                26  6.1    0.010    0.040    0.102    0.105
 cp_cfm_scale_and_add_fm          14528  7.7    0.098    0.103    0.098    0.103
 write_SOC_eigenvalues              148  6.0    0.013    0.101    0.013    0.101
 broadcast_input_information         26  7.1    0.030    0.038    0.093    0.099
 mp_irecv_iv                     190464  8.3    0.012    0.096    0.012    0.096
 dbcsr_switch_data_area           78968 10.7    0.072    0.073    0.094    0.095
 mp_sum_dm3                          31  8.0    0.063    0.092    0.063    0.092
 create_qs_kind_set                   1  2.0    0.000    0.000    0.081    0.082
 read_qs_kind                         1  3.0    0.042    0.044    0.081    0.082
 cp_fm_cleanup_copy_general       33728  7.1    0.047    0.049    0.070    0.074
 topology_control                     1  2.0    0.000    0.000    0.072    0.072
 mp_isend_iv                     107136  8.3    0.017    0.067    0.017    0.067
 xc_functional_eval                  31 11.0    0.000    0.000    0.063    0.065
 pbe_lda_eval                        31 12.0    0.063    0.065    0.063    0.065
 scf_post_calculation_gpw             1  3.0    0.000    0.000    0.060    0.060
 write_available_results              1  4.0    0.000    0.000    0.060    0.060
 write_mo_free_results                1  5.0    0.001    0.001    0.060    0.060
 mp_sum_dv                         1350  7.0    0.040    0.057    0.040    0.057
 dbcsr_get_data_size_used        138881  9.9    0.046    0.056    0.046    0.056
 dbcsr_distribution_new           56498  8.6    0.044    0.053    0.044    0.053
 read_cell_cif                        2  4.5    0.002    0.005    0.049    0.050
 dbcsr_make_dbcsr_index          177485 11.0    0.043    0.047    0.043    0.047
 mp_bcast_i_src                     104  8.1    0.039    0.045    0.039    0.045
 cp_fm_create                     22678  7.9    0.043    0.045    0.043    0.045
 mp_irecv_im2                     95232  8.3    0.006    0.045    0.006    0.045
 coordinate_control                   1  3.0    0.001    0.002    0.044    0.044
 coordinate_control_READ_COORDI       1  4.0    0.000    0.000    0.043    0.044
 read_coordinate_cif                  1  5.0    0.002    0.002    0.043    0.044
 mp_recv_dv                        6834  7.0    0.006    0.044    0.006    0.044
 -------------------------------------------------------------------------------

 The number of warnings for this run is : 1
 
 -------------------------------------------------------------------------------
  **** **** ******  **  PROGRAM ENDED AT                 2025-08-07 23:43:16.746
 ***** ** ***  *** **   PROGRAM RAN ON                              i04r07c05s12
 **    ****   ******    PROGRAM RAN BY                                   di38fab
 ***** **    ** ** **   PROGRAM PROCESS ID                               1457430
  **** **  *******  **  PROGRAM STOPPED IN /hppfs/scratch/04/di38fab/09_GTH/Delt
                                           a_Set/Hg/aug-DZVP-MOLOPT-GTH-tier-1/8
                                           x8x8
