 DBCSR| CPU Multiplication driver                                           BLAS (U)
 DBCSR| Multrec recursion limit                                              512 (U)
 DBCSR| Multiplication stack size                                           1000 (D)
 DBCSR| Maximum elements for images                                    UNLIMITED (U)
 DBCSR| Multiplicative factor virtual images                                   1 (U)
 DBCSR| Use multiplication densification                                       T (D)
 DBCSR| Multiplication size stacks                                             3 (U)
 DBCSR| Use memory pool for CPU allocation                                     F (U)
 DBCSR| Number of 3D layers                                               SINGLE (U)
 DBCSR| Use MPI memory allocation                                              F (U)
 DBCSR| Use RMA algorithm                                                      F (U)
 DBCSR| Use Communication thread                                               T (U)
 DBCSR| Communication thread load                                             45 (D)
 DBCSR| MPI: My process id                                                     0
 DBCSR| MPI: Number of processes                                               8
 DBCSR| OMP: Current number of threads                                        12
 DBCSR| OMP: Max number of threads                                            12
 DBCSR| Split modifier for TAS multiplication algorithm                  1.0E+00 (U)


  **** **** ******  **  PROGRAM STARTED AT               2025-08-05 04:42:40.067
 ***** ** ***  *** **   PROGRAM STARTED ON                          i01r06c06s09
 **    ****   ******    PROGRAM STARTED BY                               di38fab
 ***** **    ** ** **   PROGRAM PROCESS ID                               2372349
  **** **  *******  **  PROGRAM STARTED IN /hppfs/scratch/04/di38fab/09_GTH/Delt
                                           a_Set/Xe/aug-DZVP-MOLOPT-GTH-tier-2/8
                                           x8x8

 CP2K| version string:                 CP2K version 2025.1 (Development Version)
 CP2K| source code revision number:                                  git:3130539
 CP2K| cp2kflags: omp libint fftw3 libxc parallel scalapack max_contr=4         
 CP2K| is freely available from                            https://www.cp2k.org/
 CP2K| Program compiled at                         Tue Jun  3 16:14:32 CEST 2025
 CP2K| Program compiled on                                               login01
 CP2K| Program compiled for                                        Supermuc-foss
 CP2K| Data directory path                  /hppfs/work/pn36zo/di38fab/cp2k/data
 CP2K| Input file name                                                    GW.inp

 GLOBAL| Force Environment number                                              1
 GLOBAL| Basis set file name            /hppfs/scratch/04/di38fab/09_GTH/BASIS_A
 GLOBAL| Potential file name            /hppfs/work/pn36zo/di38fab/cp2k/data/GTH
 GLOBAL| MM Potential file name                                     MM_POTENTIAL
 GLOBAL| Coordinate file name                                             Xe.cif
 GLOBAL| Method name                                                        CP2K
 GLOBAL| Project name                                                       WSe2
 GLOBAL| Run type                                                         ENERGY
 GLOBAL| FFT library                                                       FFTW3
 GLOBAL| Diagonalization library                                       ScaLAPACK
 GLOBAL| Cholesky decomposition library                                ScaLAPACK
 GLOBAL| DGEMM library                                                      BLAS
 GLOBAL| Orthonormality check for eigenvectors                          DISABLED
 GLOBAL| Matrix multiplication library                                 ScaLAPACK
 GLOBAL| All-to-all communication in single precision                          F
 GLOBAL| FFTs using library dependent lengths                                  F
 GLOBAL| Grid backend                                                       AUTO
 GLOBAL| Global print level                                               MEDIUM
 GLOBAL| MPI I/O enabled                                                       T
 GLOBAL| Total number of message passing processes                             8
 GLOBAL| Number of threads for this process                                   12
 GLOBAL| This output is from process                                           0
 GLOBAL| OpenMP stack size per thread (OMP_STACKSIZE)                    default
 GLOBAL| CPU model name             Intel(R) Xeon(R) Platinum 8174 CPU @ 3.10GHz

 MEMORY| system memory details [Kb]
 MEMORY|                        rank 0           min           max       average
 MEMORY| MemTotal             98436660      98436660      98436664      98436662
 MEMORY| MemFree              84697320      84697320      84734628      84715974
 MEMORY| Buffers                     0             0             0             0
 MEMORY| Cached                2342424       2342424       2384468       2363446
 MEMORY| Slab                  1283672       1283672       1297712       1290692
 MEMORY| SReclaimable           270340        270340        287192        278766
 MEMORY| MemLikelyFree        87310084      87310084      87406288      87358186


 *** Fundamental physical constants (SI units) ***

 *** Literature: B. J. Mohr and B. N. Taylor,
 ***             CODATA recommended values of the fundamental physical
 ***             constants: 2006, Web Version 5.1
 ***             http://physics.nist.gov/constants

 Speed of light in vacuum [m/s]                             2.99792458000000E+08
 Magnetic constant or permeability of vacuum [N/A**2]       1.25663706143592E-06
 Electric constant or permittivity of vacuum [F/m]          8.85418781762039E-12
 Planck constant (h) [J*s]                                  6.62606896000000E-34
 Planck constant (h-bar) [J*s]                              1.05457162825177E-34
 Elementary charge [C]                                      1.60217648700000E-19
 Electron mass [kg]                                         9.10938215000000E-31
 Electron g factor [ ]                                     -2.00231930436220E+00
 Proton mass [kg]                                           1.67262163700000E-27
 Fine-structure constant                                    7.29735253760000E-03
 Rydberg constant [1/m]                                     1.09737315685270E+07
 Avogadro constant [1/mol]                                  6.02214179000000E+23
 Boltzmann constant [J/K]                                   1.38065040000000E-23
 Atomic mass unit [kg]                                      1.66053878200000E-27
 Bohr radius [m]                                            5.29177208590000E-11

 *** Conversion factors ***

 [u] -> [a.u.]                                              1.82288848426455E+03
 [Angstrom] -> [Bohr] = [a.u.]                              1.88972613288564E+00
 [a.u.] = [Bohr] -> [Angstrom]                              5.29177208590000E-01
 [a.u.] -> [s]                                              2.41888432650478E-17
 [a.u.] -> [fs]                                             2.41888432650478E-02
 [a.u.] -> [J]                                              4.35974393937059E-18
 [a.u.] -> [N]                                              8.23872205491840E-08
 [a.u.] -> [K]                                              3.15774647902944E+05
 [a.u.] -> [kJ/mol]                                         2.62549961709828E+03
 [a.u.] -> [kcal/mol]                                       6.27509468713739E+02
 [a.u.] -> [Pa]                                             2.94210107994716E+13
 [a.u.] -> [bar]                                            2.94210107994716E+08
 [a.u.] -> [atm]                                            2.90362800883016E+08
 [a.u.] -> [eV]                                             2.72113838565563E+01
 [a.u.] -> [Hz]                                             6.57968392072181E+15
 [a.u.] -> [1/cm] (wave numbers)                            2.19474631370540E+05
 [a.u./Bohr**2] -> [1/cm]                                   5.14048714338585E+03
 

 CELL_TOP| Volume [angstrom^3]:                                       351.121815
 CELL_TOP| Vector a [angstrom     7.055     0.000     0.000   |a| =     7.054820
 CELL_TOP| Vector b [angstrom     0.000     7.055     0.000   |b| =     7.054820
 CELL_TOP| Vector c [angstrom     0.000     0.000     7.055   |c| =     7.054820
 CELL_TOP| Angle (b,c), alpha [degree]:                                90.000000
 CELL_TOP| Angle (a,c), beta  [degree]:                                90.000000
 CELL_TOP| Angle (a,b), gamma [degree]:                                90.000000
 CELL_TOP| Numerically orthorhombic:                                         YES
 CELL_TOP| Periodicity                                                       XYZ

 CELL_CIF| Volume [angstrom^3]:                                       351.121815
 CELL_CIF| Vector a [angstrom     7.055     0.000     0.000   |a| =     7.054820
 CELL_CIF| Vector b [angstrom     0.000     7.055     0.000   |b| =     7.054820
 CELL_CIF| Vector c [angstrom     0.000     0.000     7.055   |c| =     7.054820
 CELL_CIF| Angle (b,c), alpha [degree]:                                90.000000
 CELL_CIF| Angle (a,c), beta  [degree]:                                90.000000
 CELL_CIF| Angle (a,b), gamma [degree]:                                90.000000
 CELL_CIF| Numerically orthorhombic:                                         YES
 CELL_CIF| Periodicity                                                       XYZ

 GENERATE|  Preliminary Number of Bonds generated:                             0
 GENERATE|  Achieved consistency in connectivity generation.

 CELL| Volume [angstrom^3]:                                           351.121815
 CELL| Vector a [angstrom]:       7.055     0.000     0.000   |a| =     7.054820
 CELL| Vector b [angstrom]:       0.000     7.055     0.000   |b| =     7.054820
 CELL| Vector c [angstrom]:       0.000     0.000     7.055   |c| =     7.054820
 CELL| Angle (b,c), alpha [degree]:                                    90.000000
 CELL| Angle (a,c), beta  [degree]:                                    90.000000
 CELL| Angle (a,b), gamma [degree]:                                    90.000000
 CELL| Numerically orthorhombic:                                             YES
 CELL| Periodicity                                                           XYZ

 CELL_REF| Volume [angstrom^3]:                                       351.121815
 CELL_REF| Vector a [angstrom     7.055     0.000     0.000   |a| =     7.054820
 CELL_REF| Vector b [angstrom     0.000     7.055     0.000   |b| =     7.054820
 CELL_REF| Vector c [angstrom     0.000     0.000     7.055   |c| =     7.054820
 CELL_REF| Angle (b,c), alpha [degree]:                                90.000000
 CELL_REF| Angle (a,c), beta  [degree]:                                90.000000
 CELL_REF| Angle (a,b), gamma [degree]:                                90.000000
 CELL_REF| Numerically orthorhombic:                                         YES
 CELL_REF| Periodicity                                                       XYZ

 *** WARNING in cryssym.F:180 :: Symmetry library SPGLIB not available ***


 *******************************************************************************
                                    Kpoints
 *******************************************************************************
 BRILLOUIN| K-point scheme                                        Monkhorst-Pack
 BRILLOUIN| K-Point grid                                             8    8    8
 BRILLOUIN| Accuracy in Symmetry determination                      0.100000E-05
 BRILLOUIN| K-Point point group symmetrization                               OFF
 BRILLOUIN| Wavefunction type                                            COMPLEX
 BRILLOUIN| List of Kpoints [2 Pi/Bohr]                                      256
 BRILLOUIN| Number           Weight            X              Y              Z
 BRILLOUIN|     1           0.00391       -0.43750       -0.43750       -0.43750
 BRILLOUIN|     2           0.00391       -0.43750       -0.43750       -0.31250
 BRILLOUIN|     3           0.00391       -0.43750       -0.43750       -0.18750
 BRILLOUIN|     4           0.00391       -0.43750       -0.43750       -0.06250
 BRILLOUIN|     5           0.00391       -0.43750       -0.43750        0.06250
 BRILLOUIN|     6           0.00391       -0.43750       -0.43750        0.18750
 BRILLOUIN|     7           0.00391       -0.43750       -0.43750        0.31250
 BRILLOUIN|     8           0.00391       -0.43750       -0.43750        0.43750
 BRILLOUIN|     9           0.00391       -0.43750       -0.31250       -0.43750
 BRILLOUIN|    10           0.00391       -0.43750       -0.31250       -0.31250
 BRILLOUIN|    11           0.00391       -0.43750       -0.31250       -0.18750
 BRILLOUIN|    12           0.00391       -0.43750       -0.31250       -0.06250
 BRILLOUIN|    13           0.00391       -0.43750       -0.31250        0.06250
 BRILLOUIN|    14           0.00391       -0.43750       -0.31250        0.18750
 BRILLOUIN|    15           0.00391       -0.43750       -0.31250        0.31250
 BRILLOUIN|    16           0.00391       -0.43750       -0.31250        0.43750
 BRILLOUIN|    17           0.00391       -0.43750       -0.18750       -0.43750
 BRILLOUIN|    18           0.00391       -0.43750       -0.18750       -0.31250
 BRILLOUIN|    19           0.00391       -0.43750       -0.18750       -0.18750
 BRILLOUIN|    20           0.00391       -0.43750       -0.18750       -0.06250
 BRILLOUIN|    21           0.00391       -0.43750       -0.18750        0.06250
 BRILLOUIN|    22           0.00391       -0.43750       -0.18750        0.18750
 BRILLOUIN|    23           0.00391       -0.43750       -0.18750        0.31250
 BRILLOUIN|    24           0.00391       -0.43750       -0.18750        0.43750
 BRILLOUIN|    25           0.00391       -0.43750       -0.06250       -0.43750
 BRILLOUIN|    26           0.00391       -0.43750       -0.06250       -0.31250
 BRILLOUIN|    27           0.00391       -0.43750       -0.06250       -0.18750
 BRILLOUIN|    28           0.00391       -0.43750       -0.06250       -0.06250
 BRILLOUIN|    29           0.00391       -0.43750       -0.06250        0.06250
 BRILLOUIN|    30           0.00391       -0.43750       -0.06250        0.18750
 BRILLOUIN|    31           0.00391       -0.43750       -0.06250        0.31250
 BRILLOUIN|    32           0.00391       -0.43750       -0.06250        0.43750
 BRILLOUIN|    33           0.00391       -0.43750        0.06250       -0.43750
 BRILLOUIN|    34           0.00391       -0.43750        0.06250       -0.31250
 BRILLOUIN|    35           0.00391       -0.43750        0.06250       -0.18750
 BRILLOUIN|    36           0.00391       -0.43750        0.06250       -0.06250
 BRILLOUIN|    37           0.00391       -0.43750        0.06250        0.06250
 BRILLOUIN|    38           0.00391       -0.43750        0.06250        0.18750
 BRILLOUIN|    39           0.00391       -0.43750        0.06250        0.31250
 BRILLOUIN|    40           0.00391       -0.43750        0.06250        0.43750
 BRILLOUIN|    41           0.00391       -0.43750        0.18750       -0.43750
 BRILLOUIN|    42           0.00391       -0.43750        0.18750       -0.31250
 BRILLOUIN|    43           0.00391       -0.43750        0.18750       -0.18750
 BRILLOUIN|    44           0.00391       -0.43750        0.18750       -0.06250
 BRILLOUIN|    45           0.00391       -0.43750        0.18750        0.06250
 BRILLOUIN|    46           0.00391       -0.43750        0.18750        0.18750
 BRILLOUIN|    47           0.00391       -0.43750        0.18750        0.31250
 BRILLOUIN|    48           0.00391       -0.43750        0.18750        0.43750
 BRILLOUIN|    49           0.00391       -0.43750        0.31250       -0.43750
 BRILLOUIN|    50           0.00391       -0.43750        0.31250       -0.31250
 BRILLOUIN|    51           0.00391       -0.43750        0.31250       -0.18750
 BRILLOUIN|    52           0.00391       -0.43750        0.31250       -0.06250
 BRILLOUIN|    53           0.00391       -0.43750        0.31250        0.06250
 BRILLOUIN|    54           0.00391       -0.43750        0.31250        0.18750
 BRILLOUIN|    55           0.00391       -0.43750        0.31250        0.31250
 BRILLOUIN|    56           0.00391       -0.43750        0.31250        0.43750
 BRILLOUIN|    57           0.00391       -0.43750        0.43750       -0.43750
 BRILLOUIN|    58           0.00391       -0.43750        0.43750       -0.31250
 BRILLOUIN|    59           0.00391       -0.43750        0.43750       -0.18750
 BRILLOUIN|    60           0.00391       -0.43750        0.43750       -0.06250
 BRILLOUIN|    61           0.00391       -0.43750        0.43750        0.06250
 BRILLOUIN|    62           0.00391       -0.43750        0.43750        0.18750
 BRILLOUIN|    63           0.00391       -0.43750        0.43750        0.31250
 BRILLOUIN|    64           0.00391       -0.43750        0.43750        0.43750
 BRILLOUIN|    65           0.00391       -0.31250       -0.43750       -0.43750
 BRILLOUIN|    66           0.00391       -0.31250       -0.43750       -0.31250
 BRILLOUIN|    67           0.00391       -0.31250       -0.43750       -0.18750
 BRILLOUIN|    68           0.00391       -0.31250       -0.43750       -0.06250
 BRILLOUIN|    69           0.00391       -0.31250       -0.43750        0.06250
 BRILLOUIN|    70           0.00391       -0.31250       -0.43750        0.18750
 BRILLOUIN|    71           0.00391       -0.31250       -0.43750        0.31250
 BRILLOUIN|    72           0.00391       -0.31250       -0.43750        0.43750
 BRILLOUIN|    73           0.00391       -0.31250       -0.31250       -0.43750
 BRILLOUIN|    74           0.00391       -0.31250       -0.31250       -0.31250
 BRILLOUIN|    75           0.00391       -0.31250       -0.31250       -0.18750
 BRILLOUIN|    76           0.00391       -0.31250       -0.31250       -0.06250
 BRILLOUIN|    77           0.00391       -0.31250       -0.31250        0.06250
 BRILLOUIN|    78           0.00391       -0.31250       -0.31250        0.18750
 BRILLOUIN|    79           0.00391       -0.31250       -0.31250        0.31250
 BRILLOUIN|    80           0.00391       -0.31250       -0.31250        0.43750
 BRILLOUIN|    81           0.00391       -0.31250       -0.18750       -0.43750
 BRILLOUIN|    82           0.00391       -0.31250       -0.18750       -0.31250
 BRILLOUIN|    83           0.00391       -0.31250       -0.18750       -0.18750
 BRILLOUIN|    84           0.00391       -0.31250       -0.18750       -0.06250
 BRILLOUIN|    85           0.00391       -0.31250       -0.18750        0.06250
 BRILLOUIN|    86           0.00391       -0.31250       -0.18750        0.18750
 BRILLOUIN|    87           0.00391       -0.31250       -0.18750        0.31250
 BRILLOUIN|    88           0.00391       -0.31250       -0.18750        0.43750
 BRILLOUIN|    89           0.00391       -0.31250       -0.06250       -0.43750
 BRILLOUIN|    90           0.00391       -0.31250       -0.06250       -0.31250
 BRILLOUIN|    91           0.00391       -0.31250       -0.06250       -0.18750
 BRILLOUIN|    92           0.00391       -0.31250       -0.06250       -0.06250
 BRILLOUIN|    93           0.00391       -0.31250       -0.06250        0.06250
 BRILLOUIN|    94           0.00391       -0.31250       -0.06250        0.18750
 BRILLOUIN|    95           0.00391       -0.31250       -0.06250        0.31250
 BRILLOUIN|    96           0.00391       -0.31250       -0.06250        0.43750
 BRILLOUIN|    97           0.00391       -0.31250        0.06250       -0.43750
 BRILLOUIN|    98           0.00391       -0.31250        0.06250       -0.31250
 BRILLOUIN|    99           0.00391       -0.31250        0.06250       -0.18750
 BRILLOUIN|   100           0.00391       -0.31250        0.06250       -0.06250
 BRILLOUIN|   101           0.00391       -0.31250        0.06250        0.06250
 BRILLOUIN|   102           0.00391       -0.31250        0.06250        0.18750
 BRILLOUIN|   103           0.00391       -0.31250        0.06250        0.31250
 BRILLOUIN|   104           0.00391       -0.31250        0.06250        0.43750
 BRILLOUIN|   105           0.00391       -0.31250        0.18750       -0.43750
 BRILLOUIN|   106           0.00391       -0.31250        0.18750       -0.31250
 BRILLOUIN|   107           0.00391       -0.31250        0.18750       -0.18750
 BRILLOUIN|   108           0.00391       -0.31250        0.18750       -0.06250
 BRILLOUIN|   109           0.00391       -0.31250        0.18750        0.06250
 BRILLOUIN|   110           0.00391       -0.31250        0.18750        0.18750
 BRILLOUIN|   111           0.00391       -0.31250        0.18750        0.31250
 BRILLOUIN|   112           0.00391       -0.31250        0.18750        0.43750
 BRILLOUIN|   113           0.00391       -0.31250        0.31250       -0.43750
 BRILLOUIN|   114           0.00391       -0.31250        0.31250       -0.31250
 BRILLOUIN|   115           0.00391       -0.31250        0.31250       -0.18750
 BRILLOUIN|   116           0.00391       -0.31250        0.31250       -0.06250
 BRILLOUIN|   117           0.00391       -0.31250        0.31250        0.06250
 BRILLOUIN|   118           0.00391       -0.31250        0.31250        0.18750
 BRILLOUIN|   119           0.00391       -0.31250        0.31250        0.31250
 BRILLOUIN|   120           0.00391       -0.31250        0.31250        0.43750
 BRILLOUIN|   121           0.00391       -0.31250        0.43750       -0.43750
 BRILLOUIN|   122           0.00391       -0.31250        0.43750       -0.31250
 BRILLOUIN|   123           0.00391       -0.31250        0.43750       -0.18750
 BRILLOUIN|   124           0.00391       -0.31250        0.43750       -0.06250
 BRILLOUIN|   125           0.00391       -0.31250        0.43750        0.06250
 BRILLOUIN|   126           0.00391       -0.31250        0.43750        0.18750
 BRILLOUIN|   127           0.00391       -0.31250        0.43750        0.31250
 BRILLOUIN|   128           0.00391       -0.31250        0.43750        0.43750
 BRILLOUIN|   129           0.00391       -0.18750       -0.43750       -0.43750
 BRILLOUIN|   130           0.00391       -0.18750       -0.43750       -0.31250
 BRILLOUIN|   131           0.00391       -0.18750       -0.43750       -0.18750
 BRILLOUIN|   132           0.00391       -0.18750       -0.43750       -0.06250
 BRILLOUIN|   133           0.00391       -0.18750       -0.43750        0.06250
 BRILLOUIN|   134           0.00391       -0.18750       -0.43750        0.18750
 BRILLOUIN|   135           0.00391       -0.18750       -0.43750        0.31250
 BRILLOUIN|   136           0.00391       -0.18750       -0.43750        0.43750
 BRILLOUIN|   137           0.00391       -0.18750       -0.31250       -0.43750
 BRILLOUIN|   138           0.00391       -0.18750       -0.31250       -0.31250
 BRILLOUIN|   139           0.00391       -0.18750       -0.31250       -0.18750
 BRILLOUIN|   140           0.00391       -0.18750       -0.31250       -0.06250
 BRILLOUIN|   141           0.00391       -0.18750       -0.31250        0.06250
 BRILLOUIN|   142           0.00391       -0.18750       -0.31250        0.18750
 BRILLOUIN|   143           0.00391       -0.18750       -0.31250        0.31250
 BRILLOUIN|   144           0.00391       -0.18750       -0.31250        0.43750
 BRILLOUIN|   145           0.00391       -0.18750       -0.18750       -0.43750
 BRILLOUIN|   146           0.00391       -0.18750       -0.18750       -0.31250
 BRILLOUIN|   147           0.00391       -0.18750       -0.18750       -0.18750
 BRILLOUIN|   148           0.00391       -0.18750       -0.18750       -0.06250
 BRILLOUIN|   149           0.00391       -0.18750       -0.18750        0.06250
 BRILLOUIN|   150           0.00391       -0.18750       -0.18750        0.18750
 BRILLOUIN|   151           0.00391       -0.18750       -0.18750        0.31250
 BRILLOUIN|   152           0.00391       -0.18750       -0.18750        0.43750
 BRILLOUIN|   153           0.00391       -0.18750       -0.06250       -0.43750
 BRILLOUIN|   154           0.00391       -0.18750       -0.06250       -0.31250
 BRILLOUIN|   155           0.00391       -0.18750       -0.06250       -0.18750
 BRILLOUIN|   156           0.00391       -0.18750       -0.06250       -0.06250
 BRILLOUIN|   157           0.00391       -0.18750       -0.06250        0.06250
 BRILLOUIN|   158           0.00391       -0.18750       -0.06250        0.18750
 BRILLOUIN|   159           0.00391       -0.18750       -0.06250        0.31250
 BRILLOUIN|   160           0.00391       -0.18750       -0.06250        0.43750
 BRILLOUIN|   161           0.00391       -0.18750        0.06250       -0.43750
 BRILLOUIN|   162           0.00391       -0.18750        0.06250       -0.31250
 BRILLOUIN|   163           0.00391       -0.18750        0.06250       -0.18750
 BRILLOUIN|   164           0.00391       -0.18750        0.06250       -0.06250
 BRILLOUIN|   165           0.00391       -0.18750        0.06250        0.06250
 BRILLOUIN|   166           0.00391       -0.18750        0.06250        0.18750
 BRILLOUIN|   167           0.00391       -0.18750        0.06250        0.31250
 BRILLOUIN|   168           0.00391       -0.18750        0.06250        0.43750
 BRILLOUIN|   169           0.00391       -0.18750        0.18750       -0.43750
 BRILLOUIN|   170           0.00391       -0.18750        0.18750       -0.31250
 BRILLOUIN|   171           0.00391       -0.18750        0.18750       -0.18750
 BRILLOUIN|   172           0.00391       -0.18750        0.18750       -0.06250
 BRILLOUIN|   173           0.00391       -0.18750        0.18750        0.06250
 BRILLOUIN|   174           0.00391       -0.18750        0.18750        0.18750
 BRILLOUIN|   175           0.00391       -0.18750        0.18750        0.31250
 BRILLOUIN|   176           0.00391       -0.18750        0.18750        0.43750
 BRILLOUIN|   177           0.00391       -0.18750        0.31250       -0.43750
 BRILLOUIN|   178           0.00391       -0.18750        0.31250       -0.31250
 BRILLOUIN|   179           0.00391       -0.18750        0.31250       -0.18750
 BRILLOUIN|   180           0.00391       -0.18750        0.31250       -0.06250
 BRILLOUIN|   181           0.00391       -0.18750        0.31250        0.06250
 BRILLOUIN|   182           0.00391       -0.18750        0.31250        0.18750
 BRILLOUIN|   183           0.00391       -0.18750        0.31250        0.31250
 BRILLOUIN|   184           0.00391       -0.18750        0.31250        0.43750
 BRILLOUIN|   185           0.00391       -0.18750        0.43750       -0.43750
 BRILLOUIN|   186           0.00391       -0.18750        0.43750       -0.31250
 BRILLOUIN|   187           0.00391       -0.18750        0.43750       -0.18750
 BRILLOUIN|   188           0.00391       -0.18750        0.43750       -0.06250
 BRILLOUIN|   189           0.00391       -0.18750        0.43750        0.06250
 BRILLOUIN|   190           0.00391       -0.18750        0.43750        0.18750
 BRILLOUIN|   191           0.00391       -0.18750        0.43750        0.31250
 BRILLOUIN|   192           0.00391       -0.18750        0.43750        0.43750
 BRILLOUIN|   193           0.00391       -0.06250       -0.43750       -0.43750
 BRILLOUIN|   194           0.00391       -0.06250       -0.43750       -0.31250
 BRILLOUIN|   195           0.00391       -0.06250       -0.43750       -0.18750
 BRILLOUIN|   196           0.00391       -0.06250       -0.43750       -0.06250
 BRILLOUIN|   197           0.00391       -0.06250       -0.43750        0.06250
 BRILLOUIN|   198           0.00391       -0.06250       -0.43750        0.18750
 BRILLOUIN|   199           0.00391       -0.06250       -0.43750        0.31250
 BRILLOUIN|   200           0.00391       -0.06250       -0.43750        0.43750
 BRILLOUIN|   201           0.00391       -0.06250       -0.31250       -0.43750
 BRILLOUIN|   202           0.00391       -0.06250       -0.31250       -0.31250
 BRILLOUIN|   203           0.00391       -0.06250       -0.31250       -0.18750
 BRILLOUIN|   204           0.00391       -0.06250       -0.31250       -0.06250
 BRILLOUIN|   205           0.00391       -0.06250       -0.31250        0.06250
 BRILLOUIN|   206           0.00391       -0.06250       -0.31250        0.18750
 BRILLOUIN|   207           0.00391       -0.06250       -0.31250        0.31250
 BRILLOUIN|   208           0.00391       -0.06250       -0.31250        0.43750
 BRILLOUIN|   209           0.00391       -0.06250       -0.18750       -0.43750
 BRILLOUIN|   210           0.00391       -0.06250       -0.18750       -0.31250
 BRILLOUIN|   211           0.00391       -0.06250       -0.18750       -0.18750
 BRILLOUIN|   212           0.00391       -0.06250       -0.18750       -0.06250
 BRILLOUIN|   213           0.00391       -0.06250       -0.18750        0.06250
 BRILLOUIN|   214           0.00391       -0.06250       -0.18750        0.18750
 BRILLOUIN|   215           0.00391       -0.06250       -0.18750        0.31250
 BRILLOUIN|   216           0.00391       -0.06250       -0.18750        0.43750
 BRILLOUIN|   217           0.00391       -0.06250       -0.06250       -0.43750
 BRILLOUIN|   218           0.00391       -0.06250       -0.06250       -0.31250
 BRILLOUIN|   219           0.00391       -0.06250       -0.06250       -0.18750
 BRILLOUIN|   220           0.00391       -0.06250       -0.06250       -0.06250
 BRILLOUIN|   221           0.00391       -0.06250       -0.06250        0.06250
 BRILLOUIN|   222           0.00391       -0.06250       -0.06250        0.18750
 BRILLOUIN|   223           0.00391       -0.06250       -0.06250        0.31250
 BRILLOUIN|   224           0.00391       -0.06250       -0.06250        0.43750
 BRILLOUIN|   225           0.00391       -0.06250        0.06250       -0.43750
 BRILLOUIN|   226           0.00391       -0.06250        0.06250       -0.31250
 BRILLOUIN|   227           0.00391       -0.06250        0.06250       -0.18750
 BRILLOUIN|   228           0.00391       -0.06250        0.06250       -0.06250
 BRILLOUIN|   229           0.00391       -0.06250        0.06250        0.06250
 BRILLOUIN|   230           0.00391       -0.06250        0.06250        0.18750
 BRILLOUIN|   231           0.00391       -0.06250        0.06250        0.31250
 BRILLOUIN|   232           0.00391       -0.06250        0.06250        0.43750
 BRILLOUIN|   233           0.00391       -0.06250        0.18750       -0.43750
 BRILLOUIN|   234           0.00391       -0.06250        0.18750       -0.31250
 BRILLOUIN|   235           0.00391       -0.06250        0.18750       -0.18750
 BRILLOUIN|   236           0.00391       -0.06250        0.18750       -0.06250
 BRILLOUIN|   237           0.00391       -0.06250        0.18750        0.06250
 BRILLOUIN|   238           0.00391       -0.06250        0.18750        0.18750
 BRILLOUIN|   239           0.00391       -0.06250        0.18750        0.31250
 BRILLOUIN|   240           0.00391       -0.06250        0.18750        0.43750
 BRILLOUIN|   241           0.00391       -0.06250        0.31250       -0.43750
 BRILLOUIN|   242           0.00391       -0.06250        0.31250       -0.31250
 BRILLOUIN|   243           0.00391       -0.06250        0.31250       -0.18750
 BRILLOUIN|   244           0.00391       -0.06250        0.31250       -0.06250
 BRILLOUIN|   245           0.00391       -0.06250        0.31250        0.06250
 BRILLOUIN|   246           0.00391       -0.06250        0.31250        0.18750
 BRILLOUIN|   247           0.00391       -0.06250        0.31250        0.31250
 BRILLOUIN|   248           0.00391       -0.06250        0.31250        0.43750
 BRILLOUIN|   249           0.00391       -0.06250        0.43750       -0.43750
 BRILLOUIN|   250           0.00391       -0.06250        0.43750       -0.31250
 BRILLOUIN|   251           0.00391       -0.06250        0.43750       -0.18750
 BRILLOUIN|   252           0.00391       -0.06250        0.43750       -0.06250
 BRILLOUIN|   253           0.00391       -0.06250        0.43750        0.06250
 BRILLOUIN|   254           0.00391       -0.06250        0.43750        0.18750
 BRILLOUIN|   255           0.00391       -0.06250        0.43750        0.31250
 BRILLOUIN|   256           0.00391       -0.06250        0.43750        0.43750
 *******************************************************************************

 *******************************************************************************
 *******************************************************************************
 **                                                                           **
 **     #####                         ##              ##                      **
 **    ##   ##            ##          ##              ##                      **
 **   ##     ##                       ##            ######                    **
 **   ##     ##  ##   ##  ##   #####  ##  ##   ####   ##    #####    #####    **
 **   ##     ##  ##   ##  ##  ##      ## ##   ##      ##   ##   ##  ##   ##   **
 **   ##  ## ##  ##   ##  ##  ##      ####     ###    ##   ######   ######    **
 **    ##  ###   ##   ##  ##  ##      ## ##      ##   ##   ##       ##        **
 **     #######   #####   ##   #####  ##  ##  ####    ##    #####   ##        **
 **           ##                                                    ##        **
 **                                                                           **
 **                                                ... make the atoms dance   **
 **                                                                           **
 **            Copyright (C) by CP2K developers group (2000-2025)             **
 **                      J. Chem. Phys. 152, 194103 (2020)                    **
 **                                                                           **
 *******************************************************************************

 DFT| Spin restricted Kohn-Sham (RKS) calculation                            RKS
 DFT| Multiplicity                                                             1
 DFT| Number of spin states                                                    1
 DFT| Charge                                                                   0
 DFT| Self-interaction correction (SIC)                                       NO
 DFT| Cutoffs: density                                              1.000000E-10
 DFT|          gradient                                             1.000000E-10
 DFT|          tau                                                  1.000000E-10
 DFT|          cutoff_smoothing_range                               0.000000E+00
 DFT| XC density smoothing                                                  NONE
 DFT| XC derivatives                                                          PW

 FUNCTIONAL| PBE:
 FUNCTIONAL| J.P.Perdew, K.Burke, M.Ernzerhof, Phys. Rev. Letter, vol. 77, n 18,
 FUNCTIONAL|  pp. 3865-3868, (1996) {spin unpolarized}                          


 QS| Method:                                                                 GPW
 QS| Density plane wave grid type                        NON-SPHERICAL FULLSPACE
 QS| Number of grid levels:                                                    4
 QS| Density cutoff [a.u.]:                                                500.0
 QS| Multi grid cutoff [a.u.]: 1) grid level                               500.0
 QS|                           2) grid level                               166.7
 QS|                           3) grid level                                55.6
 QS|                           4) grid level                                18.5
 QS| Grid level progression factor:                                          3.0
 QS| Relative density cutoff [a.u.]:                                        50.0
 QS| Interaction thresholds: eps_pgf_orb:                                1.0E-16
 QS|                         eps_filter_matrix:                          0.0E+00
 QS|                         eps_core_charge:                            1.0E-18
 QS|                         eps_rho_gspace:                             1.0E-16
 QS|                         eps_rho_rspace:                             1.0E-16
 QS|                         eps_gvg_rspace:                             1.0E-08
 QS|                         eps_ppl:                                    1.0E-02
 QS|                         eps_ppnl:                                   1.0E-10


 ATOMIC KIND INFORMATION

  1. Atomic kind: Xe                                    Number of atoms:       4

     Orbital Basis Set                                aug-DZVP-MOLOPT-GTH-tier-2

       Number of orbital shell sets:                                           1
       Number of orbital shells:                                               9
       Number of primitive Cartesian functions:                                6
       Number of Cartesian basis functions:                                   34
       Number of spherical basis functions:                                   29
       Norm type:                                                              2

       Normalised Cartesian orbitals:

                        Set   Shell   Orbital            Exponent    Coefficient

                          1       1    2s                0.050000       0.000000
                                                         0.096899      -0.021026
                                                         0.171464       0.001869
                                                         0.277809      -0.266859
                                                         0.666666      -0.200938
                                                         1.060135       0.508035

                          1       2    3s                0.050000       0.000000
                                                         0.096899       0.321068
                                                         0.171464      -0.592601
                                                         0.277809       0.294285
                                                         0.666666      -0.471311
                                                         1.060135       1.104715

                          1       3    4s                0.050000       0.082380
                                                         0.096899       0.002364
                                                         0.171464       0.006404
                                                         0.277809      -0.079262
                                                         0.666666       0.027507
                                                         1.060135       0.034477

                          1       4    3px               0.050000       0.000000
                                                         0.096899       0.013852
                                                         0.171464       0.037621
                                                         0.277809       0.134455
                                                         0.666666       0.421970
                                                         1.060135      -0.586942
                          1       4    3py               0.050000       0.000000
                                                         0.096899       0.013852
                                                         0.171464       0.037621
                                                         0.277809       0.134455
                                                         0.666666       0.421970
                                                         1.060135      -0.586942
                          1       4    3pz               0.050000       0.000000
                                                         0.096899       0.013852
                                                         0.171464       0.037621
                                                         0.277809       0.134455
                                                         0.666666       0.421970
                                                         1.060135      -0.586942

                          1       5    4px               0.050000       0.000000
                                                         0.096899       0.119873
                                                         0.171464      -0.125689
                                                         0.277809       0.093382
                                                         0.666666      -0.422029
                                                         1.060135       0.403800
                          1       5    4py               0.050000       0.000000
                                                         0.096899       0.119873
                                                         0.171464      -0.125689
                                                         0.277809       0.093382
                                                         0.666666      -0.422029
                                                         1.060135       0.403800
                          1       5    4pz               0.050000       0.000000
                                                         0.096899       0.119873
                                                         0.171464      -0.125689
                                                         0.277809       0.093382
                                                         0.666666      -0.422029
                                                         1.060135       0.403800

                          1       6    5px               0.050000       0.069117
                                                         0.096899      -0.171972
                                                         0.171464       0.000342
                                                         0.277809       0.041243
                                                         0.666666       0.000176
                                                         1.060135       0.000315
                          1       6    5py               0.050000       0.069117
                                                         0.096899      -0.171972
                                                         0.171464       0.000342
                                                         0.277809       0.041243
                                                         0.666666       0.000176
                                                         1.060135       0.000315
                          1       6    5pz               0.050000       0.069117
                                                         0.096899      -0.171972
                                                         0.171464       0.000342
                                                         0.277809       0.041243
                                                         0.666666       0.000176
                                                         1.060135       0.000315

                          1       7    4dx2              0.050000       0.000000
                                                         0.096899       0.006038
                                                         0.171464      -0.059230
                                                         0.277809      -0.046152
                                                         0.666666      -0.266626
                                                         1.060135       0.321900
                          1       7    4dxy              0.050000       0.000000
                                                         0.096899       0.010459
                                                         0.171464      -0.102590
                                                         0.277809      -0.079938
                                                         0.666666      -0.461809
                                                         1.060135       0.557548
                          1       7    4dxz              0.050000       0.000000
                                                         0.096899       0.010459
                                                         0.171464      -0.102590
                                                         0.277809      -0.079938
                                                         0.666666      -0.461809
                                                         1.060135       0.557548
                          1       7    4dy2              0.050000       0.000000
                                                         0.096899       0.006038
                                                         0.171464      -0.059230
                                                         0.277809      -0.046152
                                                         0.666666      -0.266626
                                                         1.060135       0.321900
                          1       7    4dyz              0.050000       0.000000
                                                         0.096899       0.010459
                                                         0.171464      -0.102590
                                                         0.277809      -0.079938
                                                         0.666666      -0.461809
                                                         1.060135       0.557548
                          1       7    4dz2              0.050000       0.000000
                                                         0.096899       0.006038
                                                         0.171464      -0.059230
                                                         0.277809      -0.046152
                                                         0.666666      -0.266626
                                                         1.060135       0.321900

                          1       8    5dx2              0.050000       0.002080
                                                         0.096899       0.023713
                                                         0.171464       0.005118
                                                         0.277809      -0.040540
                                                         0.666666       0.016765
                                                         1.060135       0.037753
                          1       8    5dxy              0.050000       0.003603
                                                         0.096899       0.041073
                                                         0.171464       0.008865
                                                         0.277809      -0.070218
                                                         0.666666       0.029039
                                                         1.060135       0.065391
                          1       8    5dxz              0.050000       0.003603
                                                         0.096899       0.041073
                                                         0.171464       0.008865
                                                         0.277809      -0.070218
                                                         0.666666       0.029039
                                                         1.060135       0.065391
                          1       8    5dy2              0.050000       0.002080
                                                         0.096899       0.023713
                                                         0.171464       0.005118
                                                         0.277809      -0.040540
                                                         0.666666       0.016765
                                                         1.060135       0.037753
                          1       8    5dyz              0.050000       0.003603
                                                         0.096899       0.041073
                                                         0.171464       0.008865
                                                         0.277809      -0.070218
                                                         0.666666       0.029039
                                                         1.060135       0.065391
                          1       8    5dz2              0.050000       0.002080
                                                         0.096899       0.023713
                                                         0.171464       0.005118
                                                         0.277809      -0.040540
                                                         0.666666       0.016765
                                                         1.060135       0.037753

                          1       9    5fx3              0.050000      -0.002388
                                                         0.096899       0.008015
                                                         0.171464       0.004781
                                                         0.277809      -0.002546
                                                         0.666666       0.101364
                                                         1.060135       0.287842
                          1       9    5fx2y             0.050000      -0.005341
                                                         0.096899       0.017923
                                                         0.171464       0.010690
                                                         0.277809      -0.005693
                                                         0.666666       0.226658
                                                         1.060135       0.643635
                          1       9    5fx2z             0.050000      -0.005341
                                                         0.096899       0.017923
                                                         0.171464       0.010690
                                                         0.277809      -0.005693
                                                         0.666666       0.226658
                                                         1.060135       0.643635
                          1       9    5fxy2             0.050000      -0.005341
                                                         0.096899       0.017923
                                                         0.171464       0.010690
                                                         0.277809      -0.005693
                                                         0.666666       0.226658
                                                         1.060135       0.643635
                          1       9    5fxyz             0.050000      -0.009250
                                                         0.096899       0.031043
                                                         0.171464       0.018516
                                                         0.277809      -0.009861
                                                         0.666666       0.392583
                                                         1.060135       1.114809
                          1       9    5fxz2             0.050000      -0.005341
                                                         0.096899       0.017923
                                                         0.171464       0.010690
                                                         0.277809      -0.005693
                                                         0.666666       0.226658
                                                         1.060135       0.643635
                          1       9    5fy3              0.050000      -0.002388
                                                         0.096899       0.008015
                                                         0.171464       0.004781
                                                         0.277809      -0.002546
                                                         0.666666       0.101364
                                                         1.060135       0.287842
                          1       9    5fy2z             0.050000      -0.005341
                                                         0.096899       0.017923
                                                         0.171464       0.010690
                                                         0.277809      -0.005693
                                                         0.666666       0.226658
                                                         1.060135       0.643635
                          1       9    5fyz2             0.050000      -0.005341
                                                         0.096899       0.017923
                                                         0.171464       0.010690
                                                         0.277809      -0.005693
                                                         0.666666       0.226658
                                                         1.060135       0.643635
                          1       9    5fz3              0.050000      -0.002388
                                                         0.096899       0.008015
                                                         0.171464       0.004781
                                                         0.277809      -0.002546
                                                         0.666666       0.101364
                                                         1.060135       0.287842

       Atomic covalent radius [Angstrom]:                                  1.310

       Atomic van der Waals radius [Angstrom]:                             2.160

     GTH Potential information for                                       GTH-PBE

       Description:                       Goedecker-Teter-Hutter pseudopotential
                                           Goedecker et al., PRB 54, 1703 (1996)
                                          Hartwigsen et al., PRB 58, 3641 (1998)
                                                      Krack, TCA 114, 145 (2005)

       Gaussian exponent of the core charge distribution:               1.594388
       Electronic configuration (s p d ...):                               2   6

       Parameters of the local part of the GTH pseudopotential:

                          rloc        C1          C2          C3          C4
                        0.560000    8.036363

       Parameters of the non-local part of the GTH (SOC) pseudopotential:

                   l      r(l)      h(i,j,l)
                                    k(i,j,l)
                   0    0.530494    2.232021    1.200358   -0.998498
                                    1.200358   -3.173713    2.578111
                                   -0.998498    2.578111   -2.046312
                   1    0.581775    0.796982    0.591233
                                    0.591233   -0.699556
                                    0.276331   -0.091157
                                   -0.091157    0.107858
                   2    0.685545    0.560189
                                    0.016748


 MOLECULE KIND INFORMATION


 All atoms are their own molecule, skipping detailed information


 TOTAL NUMBERS AND MAXIMUM NUMBERS

  Total number of            - Atomic kinds:                                   1
                             - Atoms:                                          4
                             - Shell sets:                                     4
                             - Shells:                                        36
                             - Primitive Cartesian functions:                 24
                             - Cartesian basis functions:                    136
                             - Spherical basis functions:                    116

  Maximum angular momentum of- Orbital basis functions:                        3
                             - Local part of the GTH pseudopotential:          0
                             - Non-local part of the GTH pseudopotential:      4


 MODULE QUICKSTEP: ATOMIC COORDINATES IN ANGSTROM

   Atom Kind Element         X             Y             Z       Z(eff)     Mass
      1    1 Xe   54      0.000000      0.000000      0.000000   8.0000 131.2930
      2    1 Xe   54      0.000000      3.527410      3.527410   8.0000 131.2930
      3    1 Xe   54      3.527410      0.000000      3.527410   8.0000 131.2930
      4    1 Xe   54      3.527410      3.527410      0.000000   8.0000 131.2930



 SCF PARAMETERS         Density guess:                                    ATOMIC
                        --------------------------------------------------------
                        max_scf:                                             500
                        max_scf_history:                                       0
                        max_diis:                                              4
                        --------------------------------------------------------
                        eps_scf:                                        1.00E-09
                        eps_scf_history:                                0.00E+00
                        eps_diis:                                       1.00E-01
                        eps_eigval:                                     1.00E-05
                        --------------------------------------------------------
                        level_shift [a.u.]:                             0.000000
                        added MOs                                       100    0
                        --------------------------------------------------------
                        Mixing method:                            BROYDEN_MIXING
                                                charge density mixing in g-space
                        --------------------------------------------------------
                        No outer SCF

 PW_GRID| Information for grid number                                          1
 PW_GRID| Grid distributed over                                     8 processors
 PW_GRID| Real space group dimensions                                     8    1
 PW_GRID| the grid is blocked:                                                NO
 PW_GRID| Cutoff [a.u.]                                                    500.0
 PW_GRID| spherical cutoff:                                                   NO
 PW_GRID|   Bounds   1            -67      67                Points:         135
 PW_GRID|   Bounds   2            -67      67                Points:         135
 PW_GRID|   Bounds   3            -67      67                Points:         135
 PW_GRID| Volume element (a.u.^3)  0.9631E-03     Volume (a.u.^3)      2369.4875
 PW_GRID| Grid span                                                    FULLSPACE
 PW_GRID|   Distribution                         Average         Max         Min
 PW_GRID|   G-Vectors                           307546.9      307665      307530
 PW_GRID|   G-Rays                                2278.1        2279        2278
 PW_GRID|   Real Space Points                   307546.9      309825      291600

 PW_GRID| Information for grid number                                          2
 PW_GRID| Number of the reference grid                                         1
 PW_GRID| Grid distributed over                                     8 processors
 PW_GRID| Real space group dimensions                                     8    1
 PW_GRID| the grid is blocked:                                                NO
 PW_GRID| Cutoff [a.u.]                                                    166.7
 PW_GRID| spherical cutoff:                                                   NO
 PW_GRID|   Bounds   1            -40      39                Points:          80
 PW_GRID|   Bounds   2            -40      39                Points:          80
 PW_GRID|   Bounds   3            -40      39                Points:          80
 PW_GRID| Volume element (a.u.^3)  0.4628E-02     Volume (a.u.^3)      2369.4875
 PW_GRID| Grid span                                                    FULLSPACE
 PW_GRID|   Distribution                         Average         Max         Min
 PW_GRID|   G-Vectors                            64000.0       64080       63920
 PW_GRID|   G-Rays                                 800.0         801         799
 PW_GRID|   Real Space Points                    64000.0       64000       64000

 PW_GRID| Information for grid number                                          3
 PW_GRID| Number of the reference grid                                         1
 PW_GRID| Grid distributed over                                     8 processors
 PW_GRID| Real space group dimensions                                     8    1
 PW_GRID| the grid is blocked:                                                NO
 PW_GRID| Cutoff [a.u.]                                                     55.6
 PW_GRID| spherical cutoff:                                                   NO
 PW_GRID|   Bounds   1            -22      22                Points:          45
 PW_GRID|   Bounds   2            -22      22                Points:          45
 PW_GRID|   Bounds   3            -22      22                Points:          45
 PW_GRID| Volume element (a.u.^3)  0.2600E-01     Volume (a.u.^3)      2369.4875
 PW_GRID| Grid span                                                    FULLSPACE
 PW_GRID|   Distribution                         Average         Max         Min
 PW_GRID|   G-Vectors                            11390.6       11475       11340
 PW_GRID|   G-Rays                                 253.1         255         252
 PW_GRID|   Real Space Points                    11390.6       12150       10125

 PW_GRID| Information for grid number                                          4
 PW_GRID| Number of the reference grid                                         1
 PW_GRID| Grid distributed over                                     8 processors
 PW_GRID| Real space group dimensions                                     8    1
 PW_GRID| the grid is blocked:                                                NO
 PW_GRID| Cutoff [a.u.]                                                     18.5
 PW_GRID| spherical cutoff:                                                   NO
 PW_GRID|   Bounds   1            -12      12                Points:          25
 PW_GRID|   Bounds   2            -12      12                Points:          25
 PW_GRID|   Bounds   3            -12      12                Points:          25
 PW_GRID| Volume element (a.u.^3)  0.1516         Volume (a.u.^3)      2369.4875
 PW_GRID| Grid span                                                    FULLSPACE
 PW_GRID|   Distribution                         Average         Max         Min
 PW_GRID|   G-Vectors                             1953.1        2025        1900
 PW_GRID|   G-Rays                                  78.1          81          76
 PW_GRID|   Real Space Points                     1953.1        2500        1875

 POISSON| Solver                                                        PERIODIC
 POISSON| Periodicity                                                        XYZ

 RS_GRID| Information for grid number                                          1
 RS_GRID|   Bounds   1            -67      67                Points:         135
 RS_GRID|   Bounds   2            -67      67                Points:         135
 RS_GRID|   Bounds   3            -67      67                Points:         135
 RS_GRID| Real space fully replicated
 RS_GRID| Group size                                                           1

 RS_GRID| Information for grid number                                          2
 RS_GRID|   Bounds   1            -40      39                Points:          80
 RS_GRID|   Bounds   2            -40      39                Points:          80
 RS_GRID|   Bounds   3            -40      39                Points:          80
 RS_GRID| Real space fully replicated
 RS_GRID| Group size                                                           1

 RS_GRID| Information for grid number                                          3
 RS_GRID|   Bounds   1            -22      22                Points:          45
 RS_GRID|   Bounds   2            -22      22                Points:          45
 RS_GRID|   Bounds   3            -22      22                Points:          45
 RS_GRID| Real space fully replicated
 RS_GRID| Group size                                                           1

 RS_GRID| Information for grid number                                          4
 RS_GRID|   Bounds   1            -12      12                Points:          25
 RS_GRID|   Bounds   2            -12      12                Points:          25
 RS_GRID|   Bounds   3            -12      12                Points:          25
 RS_GRID| Real space fully replicated
 RS_GRID| Group size                                                           1

 Number of electrons:                                                         32
 Number of occupied orbitals:                                                 16
 Number of molecular orbitals:                                               116

 Number of orbital functions:                                                116
 Number of independent orbital functions:                                    116

 Extrapolation method: initial_guess

 Atomic guess: The first density matrix is obtained in terms of atomic orbitals
               and electronic configurations assigned to each atomic kind

 Guess for atomic kind: Xe

 Electronic structure
    Total number of core electrons                                         46.00
    Total number of valence electrons                                       8.00
    Total number of electrons                                              54.00
    Multiplicity                                                   not specified
    S   [  2.00  2.00  2.00  2.00] 2.00
    P   [  6.00  6.00  6.00] 6.00
    D   [ 10.00 10.00]


 *******************************************************************************
                  Iteration          Convergence                     Energy [au]
 *******************************************************************************
                          1        0.790544                     -15.220503125408
                          2        0.582083                     -15.344285944717
                          3        0.227889E-01                 -15.421113253891
                          4        0.410184E-03                 -15.421233790866
                          5        0.380577E-05                 -15.421233833838
                          6        0.169486E-07                 -15.421233833850

 Energy components [Hartree]           Total Energy ::          -15.421233833850
                                        Band Energy ::           -3.123254720165
                                     Kinetic Energy ::            4.247394368586
                                   Potential Energy ::          -19.668628202436
                                      Virial (-V/T) ::            4.630751584526
                                        Core Energy ::          -25.858708632597
                                          XC Energy ::           -2.680444556309
                                     Coulomb Energy ::           13.117919355057
                       Total Pseudopotential Energy ::          -30.173566998587
                       Local Pseudopotential Energy ::          -31.020369460295
                    Nonlocal Pseudopotential Energy ::            0.846802461708
                                        Confinement ::            0.674639974032

 Orbital energies  State     L     Occupation   Energy[a.u.]          Energy[eV]

                       1     0          2.000      -0.705252          -19.190892

                       1     1          6.000      -0.285458           -7.767716


 Total Electron Density at R=0:                                         0.001010
 Re-scaling the density matrix to get the right number of electrons
                  # Electrons              Trace(P)               Scaling factor
                           32                32.000                        1.000


 SCF WAVEFUNCTION OPTIMIZATION

  Step     Update method      Time    Convergence         Total energy    Change
  ------------------------------------------------------------------------------
     1 NoMix/Diag. 0.50E-01    3.3     0.06741182       -62.2135334089 -6.22E+01
     2 Broy./Diag. 0.50E-01    3.3     0.00008263       -62.3102743732 -9.67E-02
     3 Broy./Diag. 0.50E-01    3.3     0.00294022       -62.2453428989  6.49E-02
     4 Broy./Diag. 0.50E-01    3.3     0.00003759       -62.2171157557  2.82E-02
     5 Broy./Diag. 0.50E-01    3.3     0.00039258       -62.2124536335  4.66E-03
     6 Broy./Diag. 0.50E-01    3.3     0.00000472       -62.2094666121  2.99E-03
     7 Broy./Diag. 0.50E-01    3.4     0.00012312       -62.2129772298 -3.51E-03
     8 Broy./Diag. 0.50E-01    3.4     0.00000317       -62.2125386387  4.39E-04
     9 Broy./Diag. 0.50E-01    3.4     0.00001277       -62.2124799683  5.87E-05
    10 Broy./Diag. 0.50E-01    3.4     0.00000170       -62.2123788696  1.01E-04
    11 Broy./Diag. 0.50E-01    3.4     0.00001120       -62.2123382553  4.06E-05
    12 Broy./Diag. 0.50E-01    3.4     0.00000168       -62.2122904729  4.78E-05
    13 Broy./Diag. 0.50E-01    3.4     0.00000031       -62.2122818278  8.65E-06
    14 Broy./Diag. 0.50E-01    3.4     0.00000165       -62.2123086170 -2.68E-05
    15 Broy./Diag. 0.50E-01    3.4     0.00000001       -62.2122996346  8.98E-06
    16 Broy./Diag. 0.50E-01    3.4     0.00000032       -62.2123037111 -4.08E-06
    17 Broy./Diag. 0.50E-01    3.4     7.7907E-09       -62.2123044358 -7.25E-07
    18 Broy./Diag. 0.50E-01    3.4     0.00000012       -62.2123035049  9.31E-07
    19 Broy./Diag. 0.50E-01    3.4     9.8508E-09       -62.2123036393 -1.34E-07
    20 Broy./Diag. 0.50E-01    3.4     0.00000006       -62.2123034532  1.86E-07
    21 Broy./Diag. 0.50E-01    3.4     1.8216E-09       -62.2123031839  2.69E-07
    22 Broy./Diag. 0.50E-01    3.4     3.6841E-09       -62.2123032271 -4.33E-08
    23 Broy./Diag. 0.50E-01    3.4     2.3244E-09       -62.2123032293 -2.17E-09
    24 Broy./Diag. 0.50E-01    3.4     2.0310E-09       -62.2123032333 -4.05E-09
    25 Broy./Diag. 0.50E-01    3.4     9.7282E-11       -62.2123032293  4.03E-09

  *** SCF run converged in    25 steps ***


  Electronic density on regular grids:        -32.0000000000       -0.0000000000
  Core density on regular grids:               32.0000000000       -0.0000000000
  Total charge density on r-space grids:       -0.0000000000
  Total charge density g-space grids:          -0.0000000000

  Overlap energy of the core charge distribution:               0.00000000000000
  Self energy of the core charge distribution:               -128.95761909663003
  Core Hamiltonian energy:                                     26.03422008837230
  Hartree energy:                                              51.68226444025221
  Exchange-correlation energy:                                -10.97116866131133

  Total energy:                                               -62.21230322931683

 !-----------------------------------------------------------------------------!
                     Mulliken Population Analysis

 #  Atom  Element  Kind  Atomic population                           Net charge
       1     Xe       1          8.000000                              0.000000
       2     Xe       1          8.000000                             -0.000000
       3     Xe       1          8.000000                             -0.000000
       4     Xe       1          8.000000                             -0.000000
 # Total charge                             32.000000                 -0.000000

 !-----------------------------------------------------------------------------!

 !-----------------------------------------------------------------------------!
                           Hirshfeld Charges

  #Atom  Element  Kind  Ref Charge     Population                    Net charge
      1       Xe     1       8.000          8.000                        -0.000
      2       Xe     1       8.000          8.000                         0.000
      3       Xe     1       8.000          8.000                         0.000
      4       Xe     1       8.000          8.000                         0.000

  Total Charge                                                           -0.000
 !-----------------------------------------------------------------------------!

 KPOINTS| Band Structure Calculation
 KPOINTS| Number of k-point sets                                               1
 KPOINTS| Number of added MOs/bands                                           -1
 KPOINTS| Number of k-points in set    1                                     148
 KPOINTS| In units of b-vector [2pi/Bohr]
 KPOINTS| Special point     1 not specifi     0.000000     0.000000     0.000000
 KPOINTS| Special point     2 not specifi     0.500000     0.000000     0.500000
 KPOINTS| Special point     3 not specifi     0.625000     0.250000     0.625000
 KPOINTS| Special point     4 not specifi     0.000000     0.000000     0.000000
 KPOINTS| Time for k-point line                                            1.457

 ENERGY| Total FORCE_EVAL ( QS ) energy [hartree]            -62.212303229316831

 -------------------------------------------------------------------------------
 -                                                                             -
 -                                DBCSR STATISTICS                             -
 -                                                                             -
 -------------------------------------------------------------------------------
 COUNTER                                    TOTAL       BLAS       SMM       ACC
 flops inhomo. stacks                           0       0.0%      0.0%      0.0%
 flops total                         0.000000E+00       0.0%      0.0%      0.0%
 flops max/rank                      0.000000E+00       0.0%      0.0%      0.0%
 matmuls inhomo. stacks                         0       0.0%      0.0%      0.0%
 matmuls total                                  0       0.0%      0.0%      0.0%
 number of processed stacks                     0       0.0%      0.0%      0.0%
 average stack size                                     0.0       0.0       0.0
 marketing flops                     0.000000E+00
 -------------------------------------------------------------------------------
 -                                                                             -
 -                      DBCSR MESSAGE PASSING PERFORMANCE                      -
 -                                                                             -
 -------------------------------------------------------------------------------
 ROUTINE             CALLS      AVE VOLUME [Bytes]
 MP_Bcast                1                     12.
 MP_Allreduce           19                     21.
 MP_Alltoall        546696                   6090.
 -------------------------------------------------------------------------------

 -------------------------------------------------------------------------------
 -                                                                             -
 -                                DBM STATISTICS                               -
 -                                                                             -
 -------------------------------------------------------------------------------
    M  x    N  x    K                                          COUNT     PERCENT
 -------------------------------------------------------------------------------

 -------------------------------------------------------------------------------
 -                                                                             -
 -                                GRID STATISTICS                              -
 -                                                                             -
 -------------------------------------------------------------------------------
 LP    KERNEL             BACKEND                              COUNT     PERCENT
 6     collocate ortho    CPU                                 378352      50.98%
 6     integrate ortho    CPU                                 363800      49.02%
 0     collocate general  CPU                                      8       0.00%
 0     integrate general  CPU                                      4       0.00%
 -------------------------------------------------------------------------------

 MEMORY| Estimated peak process memory [MiB]                                 758

 -------------------------------------------------------------------------------
 ----                             MULTIGRID INFO                            ----
 -------------------------------------------------------------------------------
 count for grid        1:              0          cutoff [a.u.]          500.00
 count for grid        2:          27392          cutoff [a.u.]          166.67
 count for grid        3:          46700          cutoff [a.u.]           55.56
 count for grid        4:          46476          cutoff [a.u.]           18.52
 total gridlevel count  :         120568

 -------------------------------------------------------------------------------
 -                                                                             -
 -                         MESSAGE PASSING PERFORMANCE                         -
 -                                                                             -
 -------------------------------------------------------------------------------

 ROUTINE             CALLS      AVE VOLUME [Bytes]
 MP_Group                6
 MP_Bcast           234152                   2141.
 MP_Allreduce        38031                    180.
 MP_Sync                 4
 MP_Alltoall           455               13673342.
 MP_SendRecv           742                 809057.
 MP_ISendRecv          707                 793798.
 MP_Wait            161623
 MP_comm_split           4
 MP_ISend           171404                   3073.
 MP_IRecv           273536                   1928.
 -------------------------------------------------------------------------------


 -------------------------------------------------------------------------------
 -                                                                             -
 -                           R E F E R E N C E S                               -
 -                                                                             -
 -------------------------------------------------------------------------------
 
 CP2K version 2025.1 (Development Version), the CP2K developers group (2025).
 CP2K is freely available from https://www.cp2k.org/ .
 
 T. D. Kuehne, M. Iannuzzi, M. Del Ben, V. V. Rybkin, P. Seewald, F. Stein, T. 
 Laino, R. Z. Khaliullin, O. Schuett, F. Schiffmann, D. Golze, J. Wilhelm, S. 
 Chulkov, M. H. Bani-Hashemian, V. Weber, U. Borstnik, M. Taillefumier, A. S. 
 Jakobovits, A. Lazzaro, H. Pabst, T. Mueller, R. Schade, M. Guidon, S. 
 Andermatt, N. Holmberg, G. K. Schenter, A. Hehn, A. Bussy, F. Belleflamme, G. 
 Tabacchi, A. Gloess, M. Lass, I. Bethune, C. J. Mundy, C. Plessl, M. Watkins, 
 J. VandeVondele, M. Krack, J. Hutter.
 J. Chem. Phys. 152, 194103 (2020).
 CP2K: An electronic structure and molecular dynamics software package - 
 Quickstep: Efficient and accurate electronic structure calculations.
 https://doi.org/10.1063/5.0007045

 O. Schuett, P. Messmer, J. Hutter, J. VandeVondele.
 Electronic Structure Calculations on Graphics Processing Units, 173-190 (2016).
 GPU-Accelerated Sparse Matrix-Matrix Multiplication for Linear Scaling Density 
 Functional Theory.
 https://doi.org/10.1002/9781118670712.ch8

 J. Hutter, M. Iannuzzi, F. Schiffmann, J. VandeVondele.
 WIREs Comput Mol Sci. 4, 15-25 (2014).
 CP2K: atomistic simulations of condensed matter systems.
 https://doi.org/10.1002/wcms.1159

 U. Borstnik, J. VandeVondele, V. Weber, J. Hutter.
 Parallel Comput. 40, 47-58 (2014).
 Sparse matrix multiplication: The distributed block-compressed sparse row 
 library.
 https://doi.org/10.1016/j.parco.2014.03.012

 J. VandeVondele, J. Hutter.
 J. Chem. Phys. 127, 114105 (2007).
 Gaussian basis sets for accurate calculations on molecular systems in gas and 
 condensed phases.
 https://doi.org/10.1063/1.2770708

 J. VandeVondele, M. Krack, F. Mohamed, M. Parrinello, T. Chassaing, J. Hutter.
 Comput. Phys. Commun. 167, 103-128 (2005).
 QUICKSTEP: Fast and accurate density functional calculations using a mixed 
 Gaussian and plane waves approach.
 https://doi.org/10.1016/j.cpc.2004.12.014

 M. Krack.
 Theor. Chem. Acc. 114, 145-152 (2005).
 Pseudopotentials for H to Kr optimized for gradient-corrected 
 exchange-correlation functionals.
 https://doi.org/10.1007/s00214-005-0655-y

 M. Frigo, S. G. Johnson.
 Proc. IEEE 93, 216-231 (2005).
 The design and implementation of FFTW3.
 https://doi.org/10.1109/JPROC.2004.840301

 C. Hartwigsen, S. Goedecker, J. Hutter.
 Phys. Rev. B 58, 3641-3662 (1998).
 Relativistic separable dual-space Gaussian pseudopotentials from H to Rn.
 https://doi.org/10.1103/PhysRevB.58.3641

 G. Lippert, J. Hutter, M. Parrinello.
 Mol. Phys. 92, 477-487 (1997).
 A hybrid Gaussian and plane wave density functional scheme.
 https://doi.org/10.1080/002689797170220

 S. Goedecker, M. Teter, J. Hutter.
 Phys. Rev. B 54, 1703-1710 (1996).
 Separable dual-space Gaussian pseudopotentials.
 https://doi.org/10.1103/PhysRevB.54.1703

 J. P. Perdew, K. Burke, M. Ernzerhof.
 Phys. Rev. Lett. 77, 3865-3868 (1996).
 Generalized gradient approximation made simple.
 https://doi.org/10.1103/PhysRevLett.77.3865


 -------------------------------------------------------------------------------
 -                                                                             -
 -                                T I M I N G                                  -
 -                                                                             -
 -------------------------------------------------------------------------------
 SUBROUTINE                       CALLS  ASD         SELF TIME        TOTAL TIME
                                MAXIMUM       AVERAGE  MAXIMUM  AVERAGE  MAXIMUM
 CP2K                                 1  1.0    0.011    0.014   87.390   87.390
 qs_energies                          1  2.0    0.007    0.042   87.090   87.110
 scf_env_do_scf                       1  3.0    0.000    0.000   85.044   85.044
 scf_env_do_scf_inner_loop           25  4.0    0.012    0.013   85.043   85.044
 do_general_diag_kp                  26  5.9    0.159    0.165   75.907   76.250
 qs_scf_new_mos_kp                   25  5.0    0.000    0.000   74.513   74.844
 rskp_transform                   13096  6.9   17.689   28.533   17.689   28.533
 mp_alltoall_i22                  93348  8.8   18.793   25.402   18.793   25.402
 dbcsr_desymmetrize_deep          53370  7.4    0.950    0.986   17.965   22.370
 kpoint_density_transform            25  7.0    0.060    0.062   20.761   20.787
 dbcsr_complete_redistribute      39978  8.3    1.587    1.660   18.121   20.028
 copy_dbcsr_to_fm                 27178  6.9    0.301    0.323   14.276   14.524
 transform_dmat                    6400  8.0    8.535   13.886    8.535   13.886
 copy_fm_to_dbcsr                 12800  8.0    0.081    0.084    9.226   11.210
 cp_fm_start_copy_general         38992  7.3    0.987    1.241    5.616    5.649
 qs_ks_update_qs_env                 25  5.0    0.000    0.000    4.623    5.555
 rebuild_ks_matrix                   25  6.0    0.000    0.000    4.228    5.160
 qs_ks_build_kohn_sham_matrix        25  7.0    0.022    0.023    4.228    5.159
 cp_cfm_geeig                       837  6.9    0.008    0.009    4.264    4.353
 dbcsr_finalize                  101540  8.6    0.463    0.492    3.359    3.638
 qs_rho_update_rho_low               26  5.0    0.000    0.000    3.498    3.507
 calculate_rho_elec                  26  6.0    0.061    0.066    3.498    3.507
 mp_alltoall_d11v                280044  9.4    3.422    3.488    3.422    3.488
 cp_cfm_heevd                       837  7.9    0.001    0.001    3.229    3.299
 cp_cfm_heevd_base                  837  8.9    3.228    3.298    3.228    3.298
 sum_up_and_integrate                25  8.0    0.000    0.000    2.306    3.236
 integrate_v_rspace                  25  9.0    0.027    0.044    2.303    3.233
 mp_allgather_i                   77984  8.3    3.118    3.225    3.118    3.225
 grid_integrate_task_list            25 10.0    1.657    2.572    1.657    2.572
 grid_collocate_task_list            26  7.0    1.801    2.483    1.801    2.483
 mp_cart_sub                      54358  8.9    2.355    2.362    2.355    2.362
 dbcsr_merge_all                  39978 10.3    0.983    1.211    1.861    2.111
 hybrid_alltoall_any              53370  8.4    0.228    0.238    2.005    2.081
 fft_wrap_pw1pw2                    455 10.0    0.006    0.008    2.014    2.026
 fft_wrap_pw1pw2_500                302 11.3    0.153    0.162    1.905    1.923
 mp_alltoall_i11v                173304  9.0    1.831    1.903    1.831    1.903
 density_rs2pw                       26  7.0    0.001    0.001    1.630    1.879
 fft3d_ps                           455 12.0    0.789    0.812    1.560    1.583
 transfer_rs2pw                     106  8.0    0.001    0.001    1.312    1.575
 qs_vxc_create                       25  8.0    0.000    0.000    1.507    1.515
 xc_vxc_pw_create                    25  9.0    0.059    0.059    1.506    1.514
 transfer_rs2pw_500                  28  8.9    0.278    0.282    1.203    1.471
 mp_cart_create                   27185  8.9    1.387    1.423    1.387    1.423
 gspace_mixing                       24  5.0    0.052    0.053    1.251    1.251
 mp_sendrecv_dv                     742 10.0    0.984    1.246    0.984    1.246
 mp_bcast_iv                     155994  8.3    0.927    1.057    0.927    1.057
 broyden_mixing                      24  6.0    1.001    1.012    1.027    1.033
 xc_pw_derive                       150 11.0    0.001    0.001    0.976    1.002
 dbcsr_work_create                93348  8.8    0.555    0.577    0.951    0.987
 write_kpoints_restart               25  5.0    0.004    0.007    0.961    0.962
 dbcsr_create_new                161606  8.2    0.702    0.730    0.851    0.886
 xc_rho_set_and_dset_create          25 10.0    0.031    0.035    0.813    0.818
 mp_alltoall_z22v                   455 14.0    0.660    0.754    0.660    0.754
 cp_fm_finish_copy_general        16148  7.8    0.693    0.703    0.725    0.737
 dbcsr_work_destroy_all           93348  9.8    0.442    0.449    0.707    0.717
 dbcsr_iterator_start            290731  9.0    0.576    0.590    0.684    0.706
 tree_to_linear_d                 39978 11.3    0.661    0.691    0.661    0.691
 dbcsr_data_new                 1003279  9.7    0.648    0.686    0.648    0.686
 copy_fm_to_dbcsr_bc              12800  9.0    0.183    0.195    0.616    0.647
 xc_pw_divergence                    25 10.0    0.000    0.000    0.628    0.647
 potential_pw2rs                     25 10.0    0.003    0.003    0.619    0.626
 copy_dbcsr_to_fm_bc              27178  7.9    0.289    0.297    0.617    0.625
 cp_cfm_triangular_multiply        2511  7.9    0.614    0.620    0.614    0.620
 dbcsr_data_release             1400750 10.1    0.565    0.572    0.565    0.572
 dbcsr_copy                       37943  7.3    0.157    0.163    0.438    0.505
 x_to_yz                            250 13.2    0.066    0.072    0.445    0.465
 cp_fm_write_unformatted            986  6.0    0.233    0.423    0.279    0.459
 kpoint_density_matrices             25  7.0    0.019    0.020    0.435    0.445
 dbcsr_destroy                   136956  8.2    0.232    0.235    0.430    0.445
 dbcsr_iterator_stop             290731  9.0    0.358    0.364    0.424    0.431
 transfer_pw2rs                     101 11.0    0.001    0.001    0.427    0.428
 mp_waitall_1                    161623  8.3    0.263    0.421    0.263    0.421
 parallel_gemm_fm                  3200  8.0    0.003    0.003    0.402    0.411
 parallel_gemm_fm_gemm             3200  9.0    0.003    0.003    0.399    0.409
 cp_fm_gemm                        3200 10.0    0.396    0.405    0.396    0.405
 dbcsr_dot                        24651  8.0    0.149    0.180    0.390    0.396
 evaluate_core_matrix_traces         25  6.0    0.000    0.000    0.395    0.395
 calculate_ptrace_kp                 50  7.0    0.019    0.019    0.395    0.395
 yz_to_x                            205 12.8    0.040    0.046    0.321    0.381
 mp_bcast_im                      77984  8.3    0.299    0.343    0.299    0.343
 transfer_pw2rs_500                  26 11.8    0.175    0.179    0.321    0.330
 quick_finalize                   53370  9.4    0.170    0.174    0.296    0.301
 dbcsr_copy_into_existing         13293  9.9    0.161    0.223    0.239    0.301
 xc_functional_eval                  25 11.0    0.000    0.000    0.264    0.269
 pbe_lda_eval                        25 12.0    0.264    0.269    0.264    0.269
 mp_sum_d                         25273  8.9    0.211    0.264    0.211    0.264
 self_consistency_check              25  5.0    0.018    0.019    0.252    0.260
 qs_energies_init_hamiltonians        1  3.0    0.000    0.000    0.238    0.238
 init_scf_run                         1  3.0    0.000    0.000    0.232    0.237
 scf_env_initial_rho_setup            1  4.0    0.000    0.000    0.232    0.237
 mp_comm_free                     81577  8.9    0.211    0.236    0.211    0.236
 mp_send_dv                         986  7.0    0.041    0.222    0.041    0.222
 cp_sm_mix                        12325  6.0    0.060    0.078    0.206    0.217
 cp_cfm_cholesky_decompose          837  7.9    0.204    0.211    0.204    0.211
 kpoint_set_mo_occupation            25  7.0    0.034    0.034    0.124    0.200
 mp_isend_dv                      39584  8.2    0.182    0.192    0.182    0.192
 cp_cfm_triangular_invert           837  7.9    0.185    0.189    0.185    0.189
 dbcsr_set                        93879  7.9    0.092    0.094    0.161    0.189
 pw_scatter_p                       250 12.2    0.169    0.172    0.169    0.172
 mp_sum_dm3                          25  8.0    0.090    0.166    0.090    0.166
 cp_dbcsr_alloc_block_from_nbl     3603  5.1    0.074    0.112    0.106    0.158
 build_core_hamiltonian_matrix        1  4.0    0.002    0.002    0.122    0.156
 mp_max_d                         12327  7.0    0.118    0.135    0.118    0.135
 dbcsr_reserve_blocks             16403  9.9    0.099    0.113    0.115    0.129
 dbcsr_sort_indices              109751 10.8    0.113    0.123    0.113    0.123
 pw_poisson_solve                    25  8.0    0.000    0.000    0.122    0.122
 dbcsr_iterator_seek             290731 10.0    0.107    0.116    0.107    0.116
 qs_env_update_s_mstruct              1  4.0    0.000    0.000    0.103    0.114
 dbcsr_reserve_all_blocks         12800 10.0    0.021    0.023    0.106    0.110
 qs_init_subsys                       1  2.0    0.002    0.002    0.108    0.108
 qs_env_setup                         1  3.0    0.000    0.000    0.105    0.106
 qs_env_rebuild_pw_env                2  3.5    0.000    0.000    0.105    0.105
 pw_env_rebuild                       1  5.0    0.000    0.001    0.105    0.105
 dbcsr_make_index_exist          161606  9.2    0.093    0.098    0.093    0.098
 dbcsr_zero                       93879  8.9    0.069    0.096    0.069    0.096
 pw_grid_setup                        4  6.0    0.000    0.000    0.094    0.095
 pw_grid_setup_internal               4  7.0    0.002    0.003    0.094    0.094
 calculate_rho_core                   1  5.0    0.003    0.004    0.080    0.094
 parser_read_line                  7481  4.0    0.003    0.003    0.090    0.092
 dbcsr_data_copy_aa2              39978 11.3    0.078    0.091    0.078    0.091
 transfer_pw2rs_170                  25 12.0    0.040    0.042    0.080    0.091
 parser_read_line_low                25  6.1    0.009    0.035    0.088    0.089
 transfer_rs2pw_170                  26  9.0    0.041    0.042    0.084    0.089
 mp_isendrecv_dv                    707 13.0    0.044    0.089    0.044    0.089
 broadcast_input_information         25  7.1    0.026    0.031    0.079    0.085
 merge_index                      39978 11.3    0.076    0.083    0.076    0.083
 fft_wrap_pw1pw2_170                 51 10.5    0.007    0.008    0.076    0.081
 pw_integral_ab_c1d_c1d_gs           25  9.0    0.077    0.078    0.079    0.080
 mp_sum_dv                          320  3.3    0.046    0.077    0.046    0.077
 mp_irecv_iv                     155968  8.3    0.009    0.075    0.009    0.075
 cp_cfm_scale_and_add_fm           3348  6.9    0.068    0.072    0.068    0.072
 pw_gather_p                        205 11.8    0.068    0.070    0.068    0.070
 create_qs_kind_set                   1  2.0    0.000    0.000    0.069    0.070
 read_qs_kind                         1  3.0    0.036    0.038    0.069    0.069
 pw_grid_sort                         4  8.0    0.046    0.047    0.066    0.067
 scf_post_calculation_gpw             1  3.0    0.000    0.000    0.066    0.066
 write_available_results              1  4.0    0.000    0.000    0.066    0.066
 write_mo_free_results                1  5.0    0.003    0.003    0.066    0.066
 dbcsr_switch_data_area           53370 10.4    0.048    0.049    0.062    0.064
 topology_control                     1  2.0    0.000    0.000    0.063    0.063
 cp_fm_cleanup_copy_general       27792  7.0    0.040    0.041    0.061    0.061
 pw_derive                          225 11.3    0.051    0.056    0.051    0.056
 mixing_allocate                      1  3.0    0.003    0.003    0.038    0.053
 mp_isend_iv                      87880  8.3    0.014    0.052    0.014    0.052
 pw_copy                            375 10.5    0.048    0.050    0.048    0.050
 pw_copy_from_array                 250 12.2    0.032    0.046    0.032    0.046
 dbcsr_distribution_new           39980  8.6    0.037    0.045    0.037    0.045
 read_cell_cif                        2  4.5    0.002    0.005    0.043    0.044
 mixing_init                          1  5.0    0.040    0.043    0.043    0.043
 restraint_control                    1  2.0    0.000    0.000    0.020    0.039
 mp_sum_i                             4  2.8    0.020    0.039    0.020    0.039
 coordinate_control                   1  3.0    0.001    0.001    0.038    0.038
 coordinate_control_READ_COORDI       1  4.0    0.000    0.000    0.038    0.038
 read_coordinate_cif                  1  5.0    0.002    0.002    0.038    0.038
 build_overlap_matrix_low             1  5.0    0.011    0.014    0.028    0.038
 mp_irecv_im2                     77984  8.3    0.005    0.038    0.005    0.038
 mp_bcast_i_src                     100  8.1    0.030    0.036    0.030    0.036
 mp_recv_dv                        2958  7.0    0.004    0.036    0.004    0.036
 build_kinetic_matrix_low             1  5.0    0.009    0.012    0.025    0.035
 dbcsr_get_data_size_used         93348  9.8    0.032    0.034    0.032    0.034
 mp_bcast_am_src                     25  8.1    0.015    0.016    0.022    0.031
 calculate_hirshfeld_normalizat       1  6.0    0.006    0.013    0.030    0.031
 dbcsr_make_dbcsr_index          109751 10.8    0.029    0.030    0.029    0.030
 pw_poisson_set                      26  8.9    0.000    0.000    0.030    0.030
 mp_sum_dm                           24  7.0    0.016    0.029    0.016    0.029
 build_core_ppl                       1  5.0    0.021    0.028    0.021    0.028
 hirshfeld_integration                1  6.0    0.008    0.015    0.027    0.027
 cp_cfm_to_fm                       837  6.9    0.025    0.026    0.025    0.026
 cp_cfm_to_cfm_columns              837  7.9    0.025    0.025    0.025    0.025
 calculate_first_density_matrix       1  5.0    0.000    0.000    0.019    0.025
 mp_isend_im2                     43940  8.3    0.006    0.024    0.006    0.024
 mp_irecv_dv                      39584  8.2    0.023    0.024    0.023    0.024
 build_core_ppnl                      1  5.0    0.020    0.024    0.020    0.024
 calculate_atomic_block_dm            1  6.0    0.001    0.001    0.018    0.023
 qs_env_rebuild_rho                   1  5.0    0.000    0.000    0.017    0.023
 qs_rho_rebuild                       1  6.0    0.001    0.001    0.017    0.023
 fft_wrap_pw1pw2_60                  51 10.5    0.001    0.001    0.021    0.021
 sort_shells                          4  9.0    0.020    0.021    0.020    0.021
 pw_axpy                            254  9.3    0.020    0.020    0.020    0.020
 pw_copy_to_array                   205 11.8    0.019    0.020    0.019    0.020
 transfer_pw2rs_60                   25 12.0    0.007    0.007    0.019    0.020
 transfer_rs2pw_60                   26  9.0    0.006    0.007    0.018    0.019
 cp_fm_create                       448  3.9    0.017    0.017    0.017    0.017
 pw_grid_assign                       4  8.0    0.014    0.015    0.016    0.016
 pw_zero                            126 10.4    0.012    0.014    0.012    0.014
 calculate_ecore_overlap              1  4.0    0.000    0.000    0.010    0.014
 cp_fm_to_fm_matrix                1600  8.0    0.014    0.014    0.014    0.014
 kpoint_initialize_mos                2  2.5    0.000    0.000    0.012    0.012
 mp_sum_l                           429  2.1    0.009    0.011    0.009    0.011
 qs_create_task_list                  1  5.0    0.000    0.000    0.007    0.010
 generate_qs_task_list                1  6.0    0.005    0.008    0.007    0.010
 mp_sum_iv                           24  5.3    0.008    0.010    0.008    0.010
 qs_scf_ensure_work_matrices          1  3.0    0.000    0.000    0.008    0.010
 -------------------------------------------------------------------------------

 The number of warnings for this run is : 1
 
 -------------------------------------------------------------------------------
  **** **** ******  **  PROGRAM ENDED AT                 2025-08-05 04:44:07.788
 ***** ** ***  *** **   PROGRAM RAN ON                              i01r06c06s09
 **    ****   ******    PROGRAM RAN BY                                   di38fab
 ***** **    ** ** **   PROGRAM PROCESS ID                               2372349
  **** **  *******  **  PROGRAM STOPPED IN /hppfs/scratch/04/di38fab/09_GTH/Delt
                                           a_Set/Xe/aug-DZVP-MOLOPT-GTH-tier-2/8
                                           x8x8
