 DBCSR| CPU Multiplication driver                                           BLAS (U)
 DBCSR| Multrec recursion limit                                              512 (U)
 DBCSR| Multiplication stack size                                           1000 (D)
 DBCSR| Maximum elements for images                                    UNLIMITED (U)
 DBCSR| Multiplicative factor virtual images                                   1 (U)
 DBCSR| Use multiplication densification                                       T (D)
 DBCSR| Multiplication size stacks                                             3 (U)
 DBCSR| Use memory pool for CPU allocation                                     F (U)
 DBCSR| Number of 3D layers                                               SINGLE (U)
 DBCSR| Use MPI memory allocation                                              F (U)
 DBCSR| Use RMA algorithm                                                      F (U)
 DBCSR| Use Communication thread                                               T (U)
 DBCSR| Communication thread load                                             45 (D)
 DBCSR| MPI: My process id                                                     0
 DBCSR| MPI: Number of processes                                              16
 DBCSR| OMP: Current number of threads                                        12
 DBCSR| OMP: Max number of threads                                            12
 DBCSR| Split modifier for TAS multiplication algorithm                  1.0E+00 (U)


  **** **** ******  **  PROGRAM STARTED AT               2025-08-05 19:38:17.424
 ***** ** ***  *** **   PROGRAM STARTED ON                          i03r04c03s10
 **    ****   ******    PROGRAM STARTED BY                               di38fab
 ***** **    ** ** **   PROGRAM PROCESS ID                                170318
  **** **  *******  **  PROGRAM STARTED IN /hppfs/scratch/04/di38fab/09_GTH/Delt
                                           a_Set/Be/aug-TZVP-MOLOPT-GTH-tier-1/8
                                           x8x8

 CP2K| version string:                 CP2K version 2025.1 (Development Version)
 CP2K| source code revision number:                                  git:3130539
 CP2K| cp2kflags: omp libint fftw3 libxc parallel scalapack max_contr=4         
 CP2K| is freely available from                            https://www.cp2k.org/
 CP2K| Program compiled at                         Tue Jun  3 16:14:32 CEST 2025
 CP2K| Program compiled on                                               login01
 CP2K| Program compiled for                                        Supermuc-foss
 CP2K| Data directory path                  /hppfs/work/pn36zo/di38fab/cp2k/data
 CP2K| Input file name                                                    GW.inp

 GLOBAL| Force Environment number                                              1
 GLOBAL| Basis set file name            /hppfs/scratch/04/di38fab/09_GTH/BASIS_A
 GLOBAL| Potential file name            /hppfs/work/pn36zo/di38fab/cp2k/data/GTH
 GLOBAL| MM Potential file name                                     MM_POTENTIAL
 GLOBAL| Coordinate file name                                             Be.cif
 GLOBAL| Method name                                                        CP2K
 GLOBAL| Project name                                                       WSe2
 GLOBAL| Run type                                                         ENERGY
 GLOBAL| FFT library                                                       FFTW3
 GLOBAL| Diagonalization library                                       ScaLAPACK
 GLOBAL| Cholesky decomposition library                                ScaLAPACK
 GLOBAL| DGEMM library                                                      BLAS
 GLOBAL| Orthonormality check for eigenvectors                          DISABLED
 GLOBAL| Matrix multiplication library                                 ScaLAPACK
 GLOBAL| All-to-all communication in single precision                          F
 GLOBAL| FFTs using library dependent lengths                                  F
 GLOBAL| Grid backend                                                       AUTO
 GLOBAL| Global print level                                               MEDIUM
 GLOBAL| MPI I/O enabled                                                       T
 GLOBAL| Total number of message passing processes                            16
 GLOBAL| Number of threads for this process                                   12
 GLOBAL| This output is from process                                           0
 GLOBAL| OpenMP stack size per thread (OMP_STACKSIZE)                    default
 GLOBAL| CPU model name             Intel(R) Xeon(R) Platinum 8174 CPU @ 3.10GHz

 MEMORY| system memory details [Kb]
 MEMORY|                        rank 0           min           max       average
 MEMORY| MemTotal             98436620      98436620      98436708      98436662
 MEMORY| MemFree              87344800      84562372      87344800      85862458
 MEMORY| Buffers                     0             0             0             0
 MEMORY| Cached                2180480       2180480       2394580       2324477
 MEMORY| Slab                   815480        815480       1273196       1068141
 MEMORY| SReclaimable           167644        167644        281176        234773
 MEMORY| MemLikelyFree        89692924      87238128      89692924      88421708


 *** Fundamental physical constants (SI units) ***

 *** Literature: B. J. Mohr and B. N. Taylor,
 ***             CODATA recommended values of the fundamental physical
 ***             constants: 2006, Web Version 5.1
 ***             http://physics.nist.gov/constants

 Speed of light in vacuum [m/s]                             2.99792458000000E+08
 Magnetic constant or permeability of vacuum [N/A**2]       1.25663706143592E-06
 Electric constant or permittivity of vacuum [F/m]          8.85418781762039E-12
 Planck constant (h) [J*s]                                  6.62606896000000E-34
 Planck constant (h-bar) [J*s]                              1.05457162825177E-34
 Elementary charge [C]                                      1.60217648700000E-19
 Electron mass [kg]                                         9.10938215000000E-31
 Electron g factor [ ]                                     -2.00231930436220E+00
 Proton mass [kg]                                           1.67262163700000E-27
 Fine-structure constant                                    7.29735253760000E-03
 Rydberg constant [1/m]                                     1.09737315685270E+07
 Avogadro constant [1/mol]                                  6.02214179000000E+23
 Boltzmann constant [J/K]                                   1.38065040000000E-23
 Atomic mass unit [kg]                                      1.66053878200000E-27
 Bohr radius [m]                                            5.29177208590000E-11

 *** Conversion factors ***

 [u] -> [a.u.]                                              1.82288848426455E+03
 [Angstrom] -> [Bohr] = [a.u.]                              1.88972613288564E+00
 [a.u.] = [Bohr] -> [Angstrom]                              5.29177208590000E-01
 [a.u.] -> [s]                                              2.41888432650478E-17
 [a.u.] -> [fs]                                             2.41888432650478E-02
 [a.u.] -> [J]                                              4.35974393937059E-18
 [a.u.] -> [N]                                              8.23872205491840E-08
 [a.u.] -> [K]                                              3.15774647902944E+05
 [a.u.] -> [kJ/mol]                                         2.62549961709828E+03
 [a.u.] -> [kcal/mol]                                       6.27509468713739E+02
 [a.u.] -> [Pa]                                             2.94210107994716E+13
 [a.u.] -> [bar]                                            2.94210107994716E+08
 [a.u.] -> [atm]                                            2.90362800883016E+08
 [a.u.] -> [eV]                                             2.72113838565563E+01
 [a.u.] -> [Hz]                                             6.57968392072181E+15
 [a.u.] -> [1/cm] (wave numbers)                            2.19474631370540E+05
 [a.u./Bohr**2] -> [1/cm]                                   5.14048714338585E+03
 

 CELL_TOP| Volume [angstrom^3]:                                        15.843827
 CELL_TOP| Vector a [angstrom     2.263     0.000     0.000   |a| =     2.262760
 CELL_TOP| Vector b [angstrom     1.131     1.960     0.000   |b| =     2.262760
 CELL_TOP| Vector c [angstrom     0.000     0.000     3.573   |c| =     3.573160
 CELL_TOP| Angle (b,c), alpha [degree]:                                90.000000
 CELL_TOP| Angle (a,c), beta  [degree]:                                90.000000
 CELL_TOP| Angle (a,b), gamma [degree]:                                60.000000
 CELL_TOP| Numerically orthorhombic:                                          NO
 CELL_TOP| Periodicity                                                       XYZ

 CELL_CIF| Volume [angstrom^3]:                                        15.843827
 CELL_CIF| Vector a [angstrom     2.263     0.000     0.000   |a| =     2.262760
 CELL_CIF| Vector b [angstrom     1.131     1.960     0.000   |b| =     2.262760
 CELL_CIF| Vector c [angstrom     0.000     0.000     3.573   |c| =     3.573160
 CELL_CIF| Angle (b,c), alpha [degree]:                                90.000000
 CELL_CIF| Angle (a,c), beta  [degree]:                                90.000000
 CELL_CIF| Angle (a,b), gamma [degree]:                                60.000000
 CELL_CIF| Numerically orthorhombic:                                          NO
 CELL_CIF| Periodicity                                                       XYZ

 GENERATE|  Preliminary Number of Bonds generated:                             0
 GENERATE|  Achieved consistency in connectivity generation.

 CELL| Volume [angstrom^3]:                                            15.843827
 CELL| Vector a [angstrom]:       2.263     0.000     0.000   |a| =     2.262760
 CELL| Vector b [angstrom]:       1.131     1.960     0.000   |b| =     2.262760
 CELL| Vector c [angstrom]:       0.000     0.000     3.573   |c| =     3.573160
 CELL| Angle (b,c), alpha [degree]:                                    90.000000
 CELL| Angle (a,c), beta  [degree]:                                    90.000000
 CELL| Angle (a,b), gamma [degree]:                                    60.000000
 CELL| Numerically orthorhombic:                                              NO
 CELL| Periodicity                                                           XYZ

 CELL_REF| Volume [angstrom^3]:                                        15.843827
 CELL_REF| Vector a [angstrom     2.263     0.000     0.000   |a| =     2.262760
 CELL_REF| Vector b [angstrom     1.131     1.960     0.000   |b| =     2.262760
 CELL_REF| Vector c [angstrom     0.000     0.000     3.573   |c| =     3.573160
 CELL_REF| Angle (b,c), alpha [degree]:                                90.000000
 CELL_REF| Angle (a,c), beta  [degree]:                                90.000000
 CELL_REF| Angle (a,b), gamma [degree]:                                60.000000
 CELL_REF| Numerically orthorhombic:                                          NO
 CELL_REF| Periodicity                                                       XYZ

 *** WARNING in cryssym.F:180 :: Symmetry library SPGLIB not available ***


 *******************************************************************************
                                    Kpoints
 *******************************************************************************
 BRILLOUIN| K-point scheme                                        Monkhorst-Pack
 BRILLOUIN| K-Point grid                                             8    8    8
 BRILLOUIN| Accuracy in Symmetry determination                      0.100000E-05
 BRILLOUIN| K-Point point group symmetrization                               OFF
 BRILLOUIN| Wavefunction type                                            COMPLEX
 BRILLOUIN| List of Kpoints [2 Pi/Bohr]                                      256
 BRILLOUIN| Number           Weight            X              Y              Z
 BRILLOUIN|     1           0.00391       -0.43750       -0.43750       -0.43750
 BRILLOUIN|     2           0.00391       -0.43750       -0.43750       -0.31250
 BRILLOUIN|     3           0.00391       -0.43750       -0.43750       -0.18750
 BRILLOUIN|     4           0.00391       -0.43750       -0.43750       -0.06250
 BRILLOUIN|     5           0.00391       -0.43750       -0.43750        0.06250
 BRILLOUIN|     6           0.00391       -0.43750       -0.43750        0.18750
 BRILLOUIN|     7           0.00391       -0.43750       -0.43750        0.31250
 BRILLOUIN|     8           0.00391       -0.43750       -0.43750        0.43750
 BRILLOUIN|     9           0.00391       -0.43750       -0.31250       -0.43750
 BRILLOUIN|    10           0.00391       -0.43750       -0.31250       -0.31250
 BRILLOUIN|    11           0.00391       -0.43750       -0.31250       -0.18750
 BRILLOUIN|    12           0.00391       -0.43750       -0.31250       -0.06250
 BRILLOUIN|    13           0.00391       -0.43750       -0.31250        0.06250
 BRILLOUIN|    14           0.00391       -0.43750       -0.31250        0.18750
 BRILLOUIN|    15           0.00391       -0.43750       -0.31250        0.31250
 BRILLOUIN|    16           0.00391       -0.43750       -0.31250        0.43750
 BRILLOUIN|    17           0.00391       -0.43750       -0.18750       -0.43750
 BRILLOUIN|    18           0.00391       -0.43750       -0.18750       -0.31250
 BRILLOUIN|    19           0.00391       -0.43750       -0.18750       -0.18750
 BRILLOUIN|    20           0.00391       -0.43750       -0.18750       -0.06250
 BRILLOUIN|    21           0.00391       -0.43750       -0.18750        0.06250
 BRILLOUIN|    22           0.00391       -0.43750       -0.18750        0.18750
 BRILLOUIN|    23           0.00391       -0.43750       -0.18750        0.31250
 BRILLOUIN|    24           0.00391       -0.43750       -0.18750        0.43750
 BRILLOUIN|    25           0.00391       -0.43750       -0.06250       -0.43750
 BRILLOUIN|    26           0.00391       -0.43750       -0.06250       -0.31250
 BRILLOUIN|    27           0.00391       -0.43750       -0.06250       -0.18750
 BRILLOUIN|    28           0.00391       -0.43750       -0.06250       -0.06250
 BRILLOUIN|    29           0.00391       -0.43750       -0.06250        0.06250
 BRILLOUIN|    30           0.00391       -0.43750       -0.06250        0.18750
 BRILLOUIN|    31           0.00391       -0.43750       -0.06250        0.31250
 BRILLOUIN|    32           0.00391       -0.43750       -0.06250        0.43750
 BRILLOUIN|    33           0.00391       -0.43750        0.06250       -0.43750
 BRILLOUIN|    34           0.00391       -0.43750        0.06250       -0.31250
 BRILLOUIN|    35           0.00391       -0.43750        0.06250       -0.18750
 BRILLOUIN|    36           0.00391       -0.43750        0.06250       -0.06250
 BRILLOUIN|    37           0.00391       -0.43750        0.06250        0.06250
 BRILLOUIN|    38           0.00391       -0.43750        0.06250        0.18750
 BRILLOUIN|    39           0.00391       -0.43750        0.06250        0.31250
 BRILLOUIN|    40           0.00391       -0.43750        0.06250        0.43750
 BRILLOUIN|    41           0.00391       -0.43750        0.18750       -0.43750
 BRILLOUIN|    42           0.00391       -0.43750        0.18750       -0.31250
 BRILLOUIN|    43           0.00391       -0.43750        0.18750       -0.18750
 BRILLOUIN|    44           0.00391       -0.43750        0.18750       -0.06250
 BRILLOUIN|    45           0.00391       -0.43750        0.18750        0.06250
 BRILLOUIN|    46           0.00391       -0.43750        0.18750        0.18750
 BRILLOUIN|    47           0.00391       -0.43750        0.18750        0.31250
 BRILLOUIN|    48           0.00391       -0.43750        0.18750        0.43750
 BRILLOUIN|    49           0.00391       -0.43750        0.31250       -0.43750
 BRILLOUIN|    50           0.00391       -0.43750        0.31250       -0.31250
 BRILLOUIN|    51           0.00391       -0.43750        0.31250       -0.18750
 BRILLOUIN|    52           0.00391       -0.43750        0.31250       -0.06250
 BRILLOUIN|    53           0.00391       -0.43750        0.31250        0.06250
 BRILLOUIN|    54           0.00391       -0.43750        0.31250        0.18750
 BRILLOUIN|    55           0.00391       -0.43750        0.31250        0.31250
 BRILLOUIN|    56           0.00391       -0.43750        0.31250        0.43750
 BRILLOUIN|    57           0.00391       -0.43750        0.43750       -0.43750
 BRILLOUIN|    58           0.00391       -0.43750        0.43750       -0.31250
 BRILLOUIN|    59           0.00391       -0.43750        0.43750       -0.18750
 BRILLOUIN|    60           0.00391       -0.43750        0.43750       -0.06250
 BRILLOUIN|    61           0.00391       -0.43750        0.43750        0.06250
 BRILLOUIN|    62           0.00391       -0.43750        0.43750        0.18750
 BRILLOUIN|    63           0.00391       -0.43750        0.43750        0.31250
 BRILLOUIN|    64           0.00391       -0.43750        0.43750        0.43750
 BRILLOUIN|    65           0.00391       -0.31250       -0.43750       -0.43750
 BRILLOUIN|    66           0.00391       -0.31250       -0.43750       -0.31250
 BRILLOUIN|    67           0.00391       -0.31250       -0.43750       -0.18750
 BRILLOUIN|    68           0.00391       -0.31250       -0.43750       -0.06250
 BRILLOUIN|    69           0.00391       -0.31250       -0.43750        0.06250
 BRILLOUIN|    70           0.00391       -0.31250       -0.43750        0.18750
 BRILLOUIN|    71           0.00391       -0.31250       -0.43750        0.31250
 BRILLOUIN|    72           0.00391       -0.31250       -0.43750        0.43750
 BRILLOUIN|    73           0.00391       -0.31250       -0.31250       -0.43750
 BRILLOUIN|    74           0.00391       -0.31250       -0.31250       -0.31250
 BRILLOUIN|    75           0.00391       -0.31250       -0.31250       -0.18750
 BRILLOUIN|    76           0.00391       -0.31250       -0.31250       -0.06250
 BRILLOUIN|    77           0.00391       -0.31250       -0.31250        0.06250
 BRILLOUIN|    78           0.00391       -0.31250       -0.31250        0.18750
 BRILLOUIN|    79           0.00391       -0.31250       -0.31250        0.31250
 BRILLOUIN|    80           0.00391       -0.31250       -0.31250        0.43750
 BRILLOUIN|    81           0.00391       -0.31250       -0.18750       -0.43750
 BRILLOUIN|    82           0.00391       -0.31250       -0.18750       -0.31250
 BRILLOUIN|    83           0.00391       -0.31250       -0.18750       -0.18750
 BRILLOUIN|    84           0.00391       -0.31250       -0.18750       -0.06250
 BRILLOUIN|    85           0.00391       -0.31250       -0.18750        0.06250
 BRILLOUIN|    86           0.00391       -0.31250       -0.18750        0.18750
 BRILLOUIN|    87           0.00391       -0.31250       -0.18750        0.31250
 BRILLOUIN|    88           0.00391       -0.31250       -0.18750        0.43750
 BRILLOUIN|    89           0.00391       -0.31250       -0.06250       -0.43750
 BRILLOUIN|    90           0.00391       -0.31250       -0.06250       -0.31250
 BRILLOUIN|    91           0.00391       -0.31250       -0.06250       -0.18750
 BRILLOUIN|    92           0.00391       -0.31250       -0.06250       -0.06250
 BRILLOUIN|    93           0.00391       -0.31250       -0.06250        0.06250
 BRILLOUIN|    94           0.00391       -0.31250       -0.06250        0.18750
 BRILLOUIN|    95           0.00391       -0.31250       -0.06250        0.31250
 BRILLOUIN|    96           0.00391       -0.31250       -0.06250        0.43750
 BRILLOUIN|    97           0.00391       -0.31250        0.06250       -0.43750
 BRILLOUIN|    98           0.00391       -0.31250        0.06250       -0.31250
 BRILLOUIN|    99           0.00391       -0.31250        0.06250       -0.18750
 BRILLOUIN|   100           0.00391       -0.31250        0.06250       -0.06250
 BRILLOUIN|   101           0.00391       -0.31250        0.06250        0.06250
 BRILLOUIN|   102           0.00391       -0.31250        0.06250        0.18750
 BRILLOUIN|   103           0.00391       -0.31250        0.06250        0.31250
 BRILLOUIN|   104           0.00391       -0.31250        0.06250        0.43750
 BRILLOUIN|   105           0.00391       -0.31250        0.18750       -0.43750
 BRILLOUIN|   106           0.00391       -0.31250        0.18750       -0.31250
 BRILLOUIN|   107           0.00391       -0.31250        0.18750       -0.18750
 BRILLOUIN|   108           0.00391       -0.31250        0.18750       -0.06250
 BRILLOUIN|   109           0.00391       -0.31250        0.18750        0.06250
 BRILLOUIN|   110           0.00391       -0.31250        0.18750        0.18750
 BRILLOUIN|   111           0.00391       -0.31250        0.18750        0.31250
 BRILLOUIN|   112           0.00391       -0.31250        0.18750        0.43750
 BRILLOUIN|   113           0.00391       -0.31250        0.31250       -0.43750
 BRILLOUIN|   114           0.00391       -0.31250        0.31250       -0.31250
 BRILLOUIN|   115           0.00391       -0.31250        0.31250       -0.18750
 BRILLOUIN|   116           0.00391       -0.31250        0.31250       -0.06250
 BRILLOUIN|   117           0.00391       -0.31250        0.31250        0.06250
 BRILLOUIN|   118           0.00391       -0.31250        0.31250        0.18750
 BRILLOUIN|   119           0.00391       -0.31250        0.31250        0.31250
 BRILLOUIN|   120           0.00391       -0.31250        0.31250        0.43750
 BRILLOUIN|   121           0.00391       -0.31250        0.43750       -0.43750
 BRILLOUIN|   122           0.00391       -0.31250        0.43750       -0.31250
 BRILLOUIN|   123           0.00391       -0.31250        0.43750       -0.18750
 BRILLOUIN|   124           0.00391       -0.31250        0.43750       -0.06250
 BRILLOUIN|   125           0.00391       -0.31250        0.43750        0.06250
 BRILLOUIN|   126           0.00391       -0.31250        0.43750        0.18750
 BRILLOUIN|   127           0.00391       -0.31250        0.43750        0.31250
 BRILLOUIN|   128           0.00391       -0.31250        0.43750        0.43750
 BRILLOUIN|   129           0.00391       -0.18750       -0.43750       -0.43750
 BRILLOUIN|   130           0.00391       -0.18750       -0.43750       -0.31250
 BRILLOUIN|   131           0.00391       -0.18750       -0.43750       -0.18750
 BRILLOUIN|   132           0.00391       -0.18750       -0.43750       -0.06250
 BRILLOUIN|   133           0.00391       -0.18750       -0.43750        0.06250
 BRILLOUIN|   134           0.00391       -0.18750       -0.43750        0.18750
 BRILLOUIN|   135           0.00391       -0.18750       -0.43750        0.31250
 BRILLOUIN|   136           0.00391       -0.18750       -0.43750        0.43750
 BRILLOUIN|   137           0.00391       -0.18750       -0.31250       -0.43750
 BRILLOUIN|   138           0.00391       -0.18750       -0.31250       -0.31250
 BRILLOUIN|   139           0.00391       -0.18750       -0.31250       -0.18750
 BRILLOUIN|   140           0.00391       -0.18750       -0.31250       -0.06250
 BRILLOUIN|   141           0.00391       -0.18750       -0.31250        0.06250
 BRILLOUIN|   142           0.00391       -0.18750       -0.31250        0.18750
 BRILLOUIN|   143           0.00391       -0.18750       -0.31250        0.31250
 BRILLOUIN|   144           0.00391       -0.18750       -0.31250        0.43750
 BRILLOUIN|   145           0.00391       -0.18750       -0.18750       -0.43750
 BRILLOUIN|   146           0.00391       -0.18750       -0.18750       -0.31250
 BRILLOUIN|   147           0.00391       -0.18750       -0.18750       -0.18750
 BRILLOUIN|   148           0.00391       -0.18750       -0.18750       -0.06250
 BRILLOUIN|   149           0.00391       -0.18750       -0.18750        0.06250
 BRILLOUIN|   150           0.00391       -0.18750       -0.18750        0.18750
 BRILLOUIN|   151           0.00391       -0.18750       -0.18750        0.31250
 BRILLOUIN|   152           0.00391       -0.18750       -0.18750        0.43750
 BRILLOUIN|   153           0.00391       -0.18750       -0.06250       -0.43750
 BRILLOUIN|   154           0.00391       -0.18750       -0.06250       -0.31250
 BRILLOUIN|   155           0.00391       -0.18750       -0.06250       -0.18750
 BRILLOUIN|   156           0.00391       -0.18750       -0.06250       -0.06250
 BRILLOUIN|   157           0.00391       -0.18750       -0.06250        0.06250
 BRILLOUIN|   158           0.00391       -0.18750       -0.06250        0.18750
 BRILLOUIN|   159           0.00391       -0.18750       -0.06250        0.31250
 BRILLOUIN|   160           0.00391       -0.18750       -0.06250        0.43750
 BRILLOUIN|   161           0.00391       -0.18750        0.06250       -0.43750
 BRILLOUIN|   162           0.00391       -0.18750        0.06250       -0.31250
 BRILLOUIN|   163           0.00391       -0.18750        0.06250       -0.18750
 BRILLOUIN|   164           0.00391       -0.18750        0.06250       -0.06250
 BRILLOUIN|   165           0.00391       -0.18750        0.06250        0.06250
 BRILLOUIN|   166           0.00391       -0.18750        0.06250        0.18750
 BRILLOUIN|   167           0.00391       -0.18750        0.06250        0.31250
 BRILLOUIN|   168           0.00391       -0.18750        0.06250        0.43750
 BRILLOUIN|   169           0.00391       -0.18750        0.18750       -0.43750
 BRILLOUIN|   170           0.00391       -0.18750        0.18750       -0.31250
 BRILLOUIN|   171           0.00391       -0.18750        0.18750       -0.18750
 BRILLOUIN|   172           0.00391       -0.18750        0.18750       -0.06250
 BRILLOUIN|   173           0.00391       -0.18750        0.18750        0.06250
 BRILLOUIN|   174           0.00391       -0.18750        0.18750        0.18750
 BRILLOUIN|   175           0.00391       -0.18750        0.18750        0.31250
 BRILLOUIN|   176           0.00391       -0.18750        0.18750        0.43750
 BRILLOUIN|   177           0.00391       -0.18750        0.31250       -0.43750
 BRILLOUIN|   178           0.00391       -0.18750        0.31250       -0.31250
 BRILLOUIN|   179           0.00391       -0.18750        0.31250       -0.18750
 BRILLOUIN|   180           0.00391       -0.18750        0.31250       -0.06250
 BRILLOUIN|   181           0.00391       -0.18750        0.31250        0.06250
 BRILLOUIN|   182           0.00391       -0.18750        0.31250        0.18750
 BRILLOUIN|   183           0.00391       -0.18750        0.31250        0.31250
 BRILLOUIN|   184           0.00391       -0.18750        0.31250        0.43750
 BRILLOUIN|   185           0.00391       -0.18750        0.43750       -0.43750
 BRILLOUIN|   186           0.00391       -0.18750        0.43750       -0.31250
 BRILLOUIN|   187           0.00391       -0.18750        0.43750       -0.18750
 BRILLOUIN|   188           0.00391       -0.18750        0.43750       -0.06250
 BRILLOUIN|   189           0.00391       -0.18750        0.43750        0.06250
 BRILLOUIN|   190           0.00391       -0.18750        0.43750        0.18750
 BRILLOUIN|   191           0.00391       -0.18750        0.43750        0.31250
 BRILLOUIN|   192           0.00391       -0.18750        0.43750        0.43750
 BRILLOUIN|   193           0.00391       -0.06250       -0.43750       -0.43750
 BRILLOUIN|   194           0.00391       -0.06250       -0.43750       -0.31250
 BRILLOUIN|   195           0.00391       -0.06250       -0.43750       -0.18750
 BRILLOUIN|   196           0.00391       -0.06250       -0.43750       -0.06250
 BRILLOUIN|   197           0.00391       -0.06250       -0.43750        0.06250
 BRILLOUIN|   198           0.00391       -0.06250       -0.43750        0.18750
 BRILLOUIN|   199           0.00391       -0.06250       -0.43750        0.31250
 BRILLOUIN|   200           0.00391       -0.06250       -0.43750        0.43750
 BRILLOUIN|   201           0.00391       -0.06250       -0.31250       -0.43750
 BRILLOUIN|   202           0.00391       -0.06250       -0.31250       -0.31250
 BRILLOUIN|   203           0.00391       -0.06250       -0.31250       -0.18750
 BRILLOUIN|   204           0.00391       -0.06250       -0.31250       -0.06250
 BRILLOUIN|   205           0.00391       -0.06250       -0.31250        0.06250
 BRILLOUIN|   206           0.00391       -0.06250       -0.31250        0.18750
 BRILLOUIN|   207           0.00391       -0.06250       -0.31250        0.31250
 BRILLOUIN|   208           0.00391       -0.06250       -0.31250        0.43750
 BRILLOUIN|   209           0.00391       -0.06250       -0.18750       -0.43750
 BRILLOUIN|   210           0.00391       -0.06250       -0.18750       -0.31250
 BRILLOUIN|   211           0.00391       -0.06250       -0.18750       -0.18750
 BRILLOUIN|   212           0.00391       -0.06250       -0.18750       -0.06250
 BRILLOUIN|   213           0.00391       -0.06250       -0.18750        0.06250
 BRILLOUIN|   214           0.00391       -0.06250       -0.18750        0.18750
 BRILLOUIN|   215           0.00391       -0.06250       -0.18750        0.31250
 BRILLOUIN|   216           0.00391       -0.06250       -0.18750        0.43750
 BRILLOUIN|   217           0.00391       -0.06250       -0.06250       -0.43750
 BRILLOUIN|   218           0.00391       -0.06250       -0.06250       -0.31250
 BRILLOUIN|   219           0.00391       -0.06250       -0.06250       -0.18750
 BRILLOUIN|   220           0.00391       -0.06250       -0.06250       -0.06250
 BRILLOUIN|   221           0.00391       -0.06250       -0.06250        0.06250
 BRILLOUIN|   222           0.00391       -0.06250       -0.06250        0.18750
 BRILLOUIN|   223           0.00391       -0.06250       -0.06250        0.31250
 BRILLOUIN|   224           0.00391       -0.06250       -0.06250        0.43750
 BRILLOUIN|   225           0.00391       -0.06250        0.06250       -0.43750
 BRILLOUIN|   226           0.00391       -0.06250        0.06250       -0.31250
 BRILLOUIN|   227           0.00391       -0.06250        0.06250       -0.18750
 BRILLOUIN|   228           0.00391       -0.06250        0.06250       -0.06250
 BRILLOUIN|   229           0.00391       -0.06250        0.06250        0.06250
 BRILLOUIN|   230           0.00391       -0.06250        0.06250        0.18750
 BRILLOUIN|   231           0.00391       -0.06250        0.06250        0.31250
 BRILLOUIN|   232           0.00391       -0.06250        0.06250        0.43750
 BRILLOUIN|   233           0.00391       -0.06250        0.18750       -0.43750
 BRILLOUIN|   234           0.00391       -0.06250        0.18750       -0.31250
 BRILLOUIN|   235           0.00391       -0.06250        0.18750       -0.18750
 BRILLOUIN|   236           0.00391       -0.06250        0.18750       -0.06250
 BRILLOUIN|   237           0.00391       -0.06250        0.18750        0.06250
 BRILLOUIN|   238           0.00391       -0.06250        0.18750        0.18750
 BRILLOUIN|   239           0.00391       -0.06250        0.18750        0.31250
 BRILLOUIN|   240           0.00391       -0.06250        0.18750        0.43750
 BRILLOUIN|   241           0.00391       -0.06250        0.31250       -0.43750
 BRILLOUIN|   242           0.00391       -0.06250        0.31250       -0.31250
 BRILLOUIN|   243           0.00391       -0.06250        0.31250       -0.18750
 BRILLOUIN|   244           0.00391       -0.06250        0.31250       -0.06250
 BRILLOUIN|   245           0.00391       -0.06250        0.31250        0.06250
 BRILLOUIN|   246           0.00391       -0.06250        0.31250        0.18750
 BRILLOUIN|   247           0.00391       -0.06250        0.31250        0.31250
 BRILLOUIN|   248           0.00391       -0.06250        0.31250        0.43750
 BRILLOUIN|   249           0.00391       -0.06250        0.43750       -0.43750
 BRILLOUIN|   250           0.00391       -0.06250        0.43750       -0.31250
 BRILLOUIN|   251           0.00391       -0.06250        0.43750       -0.18750
 BRILLOUIN|   252           0.00391       -0.06250        0.43750       -0.06250
 BRILLOUIN|   253           0.00391       -0.06250        0.43750        0.06250
 BRILLOUIN|   254           0.00391       -0.06250        0.43750        0.18750
 BRILLOUIN|   255           0.00391       -0.06250        0.43750        0.31250
 BRILLOUIN|   256           0.00391       -0.06250        0.43750        0.43750
 *******************************************************************************

 *******************************************************************************
 *******************************************************************************
 **                                                                           **
 **     #####                         ##              ##                      **
 **    ##   ##            ##          ##              ##                      **
 **   ##     ##                       ##            ######                    **
 **   ##     ##  ##   ##  ##   #####  ##  ##   ####   ##    #####    #####    **
 **   ##     ##  ##   ##  ##  ##      ## ##   ##      ##   ##   ##  ##   ##   **
 **   ##  ## ##  ##   ##  ##  ##      ####     ###    ##   ######   ######    **
 **    ##  ###   ##   ##  ##  ##      ## ##      ##   ##   ##       ##        **
 **     #######   #####   ##   #####  ##  ##  ####    ##    #####   ##        **
 **           ##                                                    ##        **
 **                                                                           **
 **                                                ... make the atoms dance   **
 **                                                                           **
 **            Copyright (C) by CP2K developers group (2000-2025)             **
 **                      J. Chem. Phys. 152, 194103 (2020)                    **
 **                                                                           **
 *******************************************************************************

 DFT| Spin restricted Kohn-Sham (RKS) calculation                            RKS
 DFT| Multiplicity                                                             1
 DFT| Number of spin states                                                    1
 DFT| Charge                                                                   0
 DFT| Self-interaction correction (SIC)                                       NO
 DFT| Cutoffs: density                                              1.000000E-10
 DFT|          gradient                                             1.000000E-10
 DFT|          tau                                                  1.000000E-10
 DFT|          cutoff_smoothing_range                               0.000000E+00
 DFT| XC density smoothing                                                  NONE
 DFT| XC derivatives                                                          PW

 FUNCTIONAL| PBE:
 FUNCTIONAL| J.P.Perdew, K.Burke, M.Ernzerhof, Phys. Rev. Letter, vol. 77, n 18,
 FUNCTIONAL|  pp. 3865-3868, (1996) {spin unpolarized}                          


 QS| Method:                                                                 GPW
 QS| Density plane wave grid type                        NON-SPHERICAL FULLSPACE
 QS| Number of grid levels:                                                    4
 QS| Density cutoff [a.u.]:                                                500.0
 QS| Multi grid cutoff [a.u.]: 1) grid level                               500.0
 QS|                           2) grid level                               166.7
 QS|                           3) grid level                                55.6
 QS|                           4) grid level                                18.5
 QS| Grid level progression factor:                                          3.0
 QS| Relative density cutoff [a.u.]:                                        50.0
 QS| Interaction thresholds: eps_pgf_orb:                                1.0E-16
 QS|                         eps_filter_matrix:                          0.0E+00
 QS|                         eps_core_charge:                            1.0E-18
 QS|                         eps_rho_gspace:                             1.0E-16
 QS|                         eps_rho_rspace:                             1.0E-16
 QS|                         eps_gvg_rspace:                             1.0E-08
 QS|                         eps_ppl:                                    1.0E-02
 QS|                         eps_ppnl:                                   1.0E-10


 ATOMIC KIND INFORMATION

  1. Atomic kind: Be                                    Number of atoms:       2

     Orbital Basis Set                                aug-TZVP-MOLOPT-GTH-tier-1

       Number of orbital shell sets:                                           1
       Number of orbital shells:                                              10
       Number of primitive Cartesian functions:                                7
       Number of Cartesian basis functions:                                   26
       Number of spherical basis functions:                                   24
       Norm type:                                                              2

       Normalised Cartesian orbitals:

                        Set   Shell   Orbital            Exponent    Coefficient

                          1       1    2s                0.064375      -0.015005
                                                         0.110000       0.000000
                                                         0.214923      -0.039016
                                                         0.657533      -0.061945
                                                         2.108077      -0.487438
                                                         6.807405      -0.934865
                                                        15.020906      -0.768859

                          1       2    3s                0.064375      -0.046312
                                                         0.110000       0.000000
                                                         0.214923      -0.140821
                                                         0.657533       0.061351
                                                         2.108077       0.393309
                                                         6.807405       0.445741
                                                        15.020906       0.338020

                          1       3    4s                0.064375      -0.030099
                                                         0.110000       0.000000
                                                         0.214923       0.062020
                                                         0.657533      -0.742833
                                                         2.108077       0.852160
                                                         6.807405      -0.753405
                                                        15.020906      -0.483573

                          1       4    5s                0.064375      -0.120798
                                                         0.110000       0.000000
                                                         0.214923       0.244158
                                                         0.657533       0.186432
                                                         2.108077      -0.297614
                                                         6.807405       0.658085
                                                        15.020906       0.489591

                          1       5    6s                0.064375      -0.024602
                                                         0.110000       0.151751
                                                         0.214923       0.043658
                                                         0.657533      -0.039573
                                                         2.108077       0.000000
                                                         6.807405       0.000000
                                                        15.020906       0.000000

                          1       6    3px               0.064375      -0.012428
                                                         0.110000       0.000000
                                                         0.214923      -0.120962
                                                         0.657533      -0.232181
                                                         2.108077      -0.245400
                                                         6.807405      -0.293926
                                                        15.020906       0.493124
                          1       6    3py               0.064375      -0.012428
                                                         0.110000       0.000000
                                                         0.214923      -0.120962
                                                         0.657533      -0.232181
                                                         2.108077      -0.245400
                                                         6.807405      -0.293926
                                                        15.020906       0.493124
                          1       6    3pz               0.064375      -0.012428
                                                         0.110000       0.000000
                                                         0.214923      -0.120962
                                                         0.657533      -0.232181
                                                         2.108077      -0.245400
                                                         6.807405      -0.293926
                                                        15.020906       0.493124

                          1       7    4px               0.064375       0.020028
                                                         0.110000       0.000000
                                                         0.214923       0.061335
                                                         0.657533      -0.861876
                                                         2.108077      -0.276639
                                                         6.807405      -1.074148
                                                        15.020906      -1.321470
                          1       7    4py               0.064375       0.020028
                                                         0.110000       0.000000
                                                         0.214923       0.061335
                                                         0.657533      -0.861876
                                                         2.108077      -0.276639
                                                         6.807405      -1.074148
                                                        15.020906      -1.321470
                          1       7    4pz               0.064375       0.020028
                                                         0.110000       0.000000
                                                         0.214923       0.061335
                                                         0.657533      -0.861876
                                                         2.108077      -0.276639
                                                         6.807405      -1.074148
                                                        15.020906      -1.321470

                          1       8    5px               0.064375       0.039312
                                                         0.110000      -0.014163
                                                         0.214923       0.093750
                                                         0.657533      -0.084394
                                                         2.108077       0.000000
                                                         6.807405       0.000000
                                                        15.020906       0.000000
                          1       8    5py               0.064375       0.039312
                                                         0.110000      -0.014163
                                                         0.214923       0.093750
                                                         0.657533      -0.084394
                                                         2.108077       0.000000
                                                         6.807405       0.000000
                                                        15.020906       0.000000
                          1       8    5pz               0.064375       0.039312
                                                         0.110000      -0.014163
                                                         0.214923       0.093750
                                                         0.657533      -0.084394
                                                         2.108077       0.000000
                                                         6.807405       0.000000
                                                        15.020906       0.000000

                          1       9    4dx2              0.064375       0.001313
                                                         0.110000       0.000000
                                                         0.214923       0.066536
                                                         0.657533       0.367579
                                                         2.108077       0.085368
                                                         6.807405       0.905877
                                                        15.020906       0.046458
                          1       9    4dxy              0.064375       0.002274
                                                         0.110000       0.000000
                                                         0.214923       0.115244
                                                         0.657533       0.636666
                                                         2.108077       0.147862
                                                         6.807405       1.569025
                                                        15.020906       0.080468
                          1       9    4dxz              0.064375       0.002274
                                                         0.110000       0.000000
                                                         0.214923       0.115244
                                                         0.657533       0.636666
                                                         2.108077       0.147862
                                                         6.807405       1.569025
                                                        15.020906       0.080468
                          1       9    4dy2              0.064375       0.001313
                                                         0.110000       0.000000
                                                         0.214923       0.066536
                                                         0.657533       0.367579
                                                         2.108077       0.085368
                                                         6.807405       0.905877
                                                        15.020906       0.046458
                          1       9    4dyz              0.064375       0.002274
                                                         0.110000       0.000000
                                                         0.214923       0.115244
                                                         0.657533       0.636666
                                                         2.108077       0.147862
                                                         6.807405       1.569025
                                                        15.020906       0.080468
                          1       9    4dz2              0.064375       0.001313
                                                         0.110000       0.000000
                                                         0.214923       0.066536
                                                         0.657533       0.367579
                                                         2.108077       0.085368
                                                         6.807405       0.905877
                                                        15.020906       0.046458

                          1      10    5dx2              0.064375      -0.000003
                                                         0.110000       0.023056
                                                         0.214923       0.043242
                                                         0.657533      -0.019240
                                                         2.108077       0.000000
                                                         6.807405       0.000000
                                                        15.020906       0.000000
                          1      10    5dxy              0.064375      -0.000005
                                                         0.110000       0.039934
                                                         0.214923       0.074897
                                                         0.657533      -0.033324
                                                         2.108077       0.000000
                                                         6.807405       0.000000
                                                        15.020906       0.000000
                          1      10    5dxz              0.064375      -0.000005
                                                         0.110000       0.039934
                                                         0.214923       0.074897
                                                         0.657533      -0.033324
                                                         2.108077       0.000000
                                                         6.807405       0.000000
                                                        15.020906       0.000000
                          1      10    5dy2              0.064375      -0.000003
                                                         0.110000       0.023056
                                                         0.214923       0.043242
                                                         0.657533      -0.019240
                                                         2.108077       0.000000
                                                         6.807405       0.000000
                                                        15.020906       0.000000
                          1      10    5dyz              0.064375      -0.000005
                                                         0.110000       0.039934
                                                         0.214923       0.074897
                                                         0.657533      -0.033324
                                                         2.108077       0.000000
                                                         6.807405       0.000000
                                                        15.020906       0.000000
                          1      10    5dz2              0.064375      -0.000003
                                                         0.110000       0.023056
                                                         0.214923       0.043242
                                                         0.657533      -0.019240
                                                         2.108077       0.000000
                                                         6.807405       0.000000
                                                        15.020906       0.000000

       Atomic covalent radius [Angstrom]:                                  0.900

       Atomic van der Waals radius [Angstrom]:                             1.530

     GTH Potential information for                                       GTH-PBE

       Description:                       Goedecker-Teter-Hutter pseudopotential
                                           Goedecker et al., PRB 54, 1703 (1996)
                                          Hartwigsen et al., PRB 58, 3641 (1998)
                                                      Krack, TCA 114, 145 (2005)

       Gaussian exponent of the core charge distribution:               4.733728
       Electronic configuration (s p d ...):                                   4

       Parameters of the local part of the GTH pseudopotential:

                          rloc        C1          C2          C3          C4
                        0.325000  -24.067467   17.279022   -3.339106    0.165549


 MOLECULE KIND INFORMATION


 All atoms are their own molecule, skipping detailed information


 TOTAL NUMBERS AND MAXIMUM NUMBERS

  Total number of            - Atomic kinds:                                   1
                             - Atoms:                                          2
                             - Shell sets:                                     2
                             - Shells:                                        20
                             - Primitive Cartesian functions:                 14
                             - Cartesian basis functions:                     52
                             - Spherical basis functions:                     48

  Maximum angular momentum of- Orbital basis functions:                        2
                             - Local part of the GTH pseudopotential:          6


 MODULE QUICKSTEP: ATOMIC COORDINATES IN ANGSTROM

   Atom Kind Element         X             Y             Z       Z(eff)     Mass
      1    1 Be    4      0.000000      0.000000      0.000000   4.0000   9.0122
      2    1 Be    4      1.131369      0.653196      1.786580   4.0000   9.0122



 SCF PARAMETERS         Density guess:                                    ATOMIC
                        --------------------------------------------------------
                        max_scf:                                             500
                        max_scf_history:                                       0
                        max_diis:                                              4
                        --------------------------------------------------------
                        eps_scf:                                        1.00E-09
                        eps_scf_history:                                0.00E+00
                        eps_diis:                                       1.00E-01
                        eps_eigval:                                     1.00E-05
                        --------------------------------------------------------
                        level_shift [a.u.]:                             0.000000
                        added MOs                                        44    0
                        --------------------------------------------------------
                        Mixing method:                            BROYDEN_MIXING
                                                charge density mixing in g-space
                        --------------------------------------------------------
                        Smear method:                                FERMI_DIRAC
                        Electronic temperature [K]:                        300.0
                        Electronic temperature [a.u.]:                  9.50E-04
                        Accuracy threshold:                             1.00E-10
                        --------------------------------------------------------
                        No outer SCF

 PW_GRID| Information for grid number                                          1
 PW_GRID| Grid distributed over                                    16 processors
 PW_GRID| Real space group dimensions                                    16    1
 PW_GRID| the grid is blocked:                                                NO
 PW_GRID| Cutoff [a.u.]                                                    500.0
 PW_GRID| spherical cutoff:                                                   NO
 PW_GRID|   Bounds   1            -22      22                Points:          45
 PW_GRID|   Bounds   2            -22      22                Points:          45
 PW_GRID|   Bounds   3            -36      35                Points:          72
 PW_GRID| Volume element (a.u.^3)  0.7333E-03     Volume (a.u.^3)       106.9194
 PW_GRID| Grid span                                                    FULLSPACE
 PW_GRID|   Distribution                         Average         Max         Min
 PW_GRID|   G-Vectors                             9112.5        9135        9090
 PW_GRID|   G-Rays                                 202.5         203         202
 PW_GRID|   Real Space Points                     9112.5        9720        6480

 PW_GRID| Information for grid number                                          2
 PW_GRID| Number of the reference grid                                         1
 PW_GRID| Grid distributed over                                    16 processors
 PW_GRID| Real space group dimensions                                    16    1
 PW_GRID| the grid is blocked:                                                NO
 PW_GRID| Cutoff [a.u.]                                                    166.7
 PW_GRID| spherical cutoff:                                                   NO
 PW_GRID|   Bounds   1            -12      12                Points:          25
 PW_GRID|   Bounds   2            -12      12                Points:          25
 PW_GRID|   Bounds   3            -20      19                Points:          40
 PW_GRID| Volume element (a.u.^3)  0.4277E-02     Volume (a.u.^3)       106.9194
 PW_GRID| Grid span                                                    FULLSPACE
 PW_GRID|   Distribution                         Average         Max         Min
 PW_GRID|   G-Vectors                             1562.5        1625        1525
 PW_GRID|   G-Rays                                  62.5          65          61
 PW_GRID|   Real Space Points                     1562.5        2000        1000

 PW_GRID| Information for grid number                                          3
 PW_GRID| Number of the reference grid                                         1
 PW_GRID| Grid distributed over                                    16 processors
 PW_GRID| Real space group dimensions                                     4    4
 PW_GRID| the grid is blocked:                                                NO
 PW_GRID| Cutoff [a.u.]                                                     55.6
 PW_GRID| spherical cutoff:                                                   NO
 PW_GRID|   Bounds   1             -7       7                Points:          15
 PW_GRID|   Bounds   2             -7       7                Points:          15
 PW_GRID|   Bounds   3            -12      11                Points:          24
 PW_GRID| Volume element (a.u.^3)  0.1980E-01     Volume (a.u.^3)       106.9194
 PW_GRID| Grid span                                                    FULLSPACE
 PW_GRID|   Distribution                         Average         Max         Min
 PW_GRID|   G-Vectors                              337.5         390         300
 PW_GRID|   G-Rays                                  22.5          26          20
 PW_GRID|   Real Space Points                      337.5         384         216

 PW_GRID| Information for grid number                                          4
 PW_GRID| Number of the reference grid                                         1
 PW_GRID| Grid distributed over                                    16 processors
 PW_GRID| Real space group dimensions                                     4    4
 PW_GRID| the grid is blocked:                                                NO
 PW_GRID| Cutoff [a.u.]                                                     18.5
 PW_GRID| spherical cutoff:                                                   NO
 PW_GRID|   Bounds   1             -4       4                Points:           9
 PW_GRID|   Bounds   2             -4       4                Points:           9
 PW_GRID|   Bounds   3             -7       7                Points:          15
 PW_GRID| Volume element (a.u.^3)  0.8800E-01     Volume (a.u.^3)       106.9194
 PW_GRID| Grid span                                                    FULLSPACE
 PW_GRID|   Distribution                         Average         Max         Min
 PW_GRID|   G-Vectors                               75.9          99          54
 PW_GRID|   G-Rays                                   8.4          11           6
 PW_GRID|   Real Space Points                       75.9         135          60

 POISSON| Solver                                                        PERIODIC
 POISSON| Periodicity                                                        XYZ

 RS_GRID| Information for grid number                                          1
 RS_GRID|   Bounds   1            -22      22                Points:          45
 RS_GRID|   Bounds   2            -22      22                Points:          45
 RS_GRID|   Bounds   3            -36      35                Points:          72
 RS_GRID| Real space fully replicated
 RS_GRID| Group size                                                           1

 RS_GRID| Information for grid number                                          2
 RS_GRID|   Bounds   1            -12      12                Points:          25
 RS_GRID|   Bounds   2            -12      12                Points:          25
 RS_GRID|   Bounds   3            -20      19                Points:          40
 RS_GRID| Real space fully replicated
 RS_GRID| Group size                                                           1

 RS_GRID| Information for grid number                                          3
 RS_GRID|   Bounds   1             -7       7                Points:          15
 RS_GRID|   Bounds   2             -7       7                Points:          15
 RS_GRID|   Bounds   3            -12      11                Points:          24
 RS_GRID| Real space fully replicated
 RS_GRID| Group size                                                           1

 RS_GRID| Information for grid number                                          4
 RS_GRID|   Bounds   1             -4       4                Points:           9
 RS_GRID|   Bounds   2             -4       4                Points:           9
 RS_GRID|   Bounds   3             -7       7                Points:          15
 RS_GRID| Real space fully replicated
 RS_GRID| Group size                                                           1

 Number of electrons:                                                          8
 Number of occupied orbitals:                                                  4
 Number of molecular orbitals:                                                48

 Number of orbital functions:                                                 48
 Number of independent orbital functions:                                     48

 Extrapolation method: initial_guess

 Atomic guess: The first density matrix is obtained in terms of atomic orbitals
               and electronic configurations assigned to each atomic kind

 Guess for atomic kind: Be

 Electronic structure
    Total number of core electrons                                          0.00
    Total number of valence electrons                                       4.00
    Total number of electrons                                               4.00
    Multiplicity                                                   not specified
    S      2.00  2.00


 *******************************************************************************
                  Iteration          Convergence                     Energy [au]
 *******************************************************************************
                          1        0.388571E-01                 -14.315068008303
                          2        0.304355E-02                 -14.315365716141
                          3        0.265940E-03                 -14.315369789480
                          4        0.170459E-05                 -14.315369857821
                          5        0.201401E-07                 -14.315369857823

 Energy components [Hartree]           Total Energy ::          -14.315369857823
                                        Band Energy ::           -7.960274075376
                                     Kinetic Energy ::           12.887357930572
                                   Potential Energy ::          -27.202727788395
                                      Virial (-V/T) ::            2.110807190655
                                        Core Energy ::          -18.963804242875
                                          XC Energy ::           -2.491424306508
                                     Coulomb Energy ::            7.139858691560
                       Total Pseudopotential Energy ::          -31.896901566124
                       Local Pseudopotential Energy ::          -31.896901566124
                    Nonlocal Pseudopotential Energy ::            0.000000000000
                                        Confinement ::            0.457393926766

 Orbital energies  State     L     Occupation   Energy[a.u.]          Energy[eV]

                       1     0          2.000      -3.811618         -103.719407
                       2     0          2.000      -0.168519           -4.585630


 Total Electron Density at R=0:                                        13.773704
 Re-scaling the density matrix to get the right number of electrons
                  # Electrons              Trace(P)               Scaling factor
                            8                 8.000                        1.000


 SCF WAVEFUNCTION OPTIMIZATION

  Step     Update method      Time    Convergence         Total energy    Change
  ------------------------------------------------------------------------------
     1 NoMix/Diag. 0.10E+00   10.6     1.52207780       -29.9778399388 -3.00E+01
     2 Broy./Diag. 0.10E+00   11.2     0.00303873       -29.4025250148  5.75E-01
     3 Broy./Diag. 0.10E+00   11.2     0.02807949       -29.3516373628  5.09E-02
     4 Broy./Diag. 0.10E+00   11.2     0.00015573       -29.3428935039  8.74E-03
     5 Broy./Diag. 0.10E+00   11.3     0.00076736       -29.3407883560  2.11E-03
     6 Broy./Diag. 0.10E+00   11.2     0.00003764       -29.3412105741 -4.22E-04
     7 Broy./Diag. 0.10E+00   11.2     0.00025930       -29.3423325966 -1.12E-03
     8 Broy./Diag. 0.10E+00   11.2     0.00000165       -29.3424405962 -1.08E-04
     9 Broy./Diag. 0.10E+00   11.2     0.00001006       -29.3425738118 -1.33E-04
    10 Broy./Diag. 0.10E+00   11.2     0.00000012       -29.3425905745 -1.68E-05
    11 Broy./Diag. 0.10E+00   11.2     0.00000137       -29.3425995084 -8.93E-06
    12 Broy./Diag. 0.10E+00   11.2     0.00000005       -29.3426003197 -8.11E-07
    13 Broy./Diag. 0.10E+00   11.2     0.00000046       -29.3426020808 -1.76E-06
    14 Broy./Diag. 0.10E+00   11.2     0.00000001       -29.3426022871 -2.06E-07
    15 Broy./Diag. 0.10E+00   11.2     0.00000002       -29.3426023544 -6.73E-08
    16 Broy./Diag. 0.10E+00   11.2     3.1678E-09       -29.3426023697 -1.53E-08
    17 Broy./Diag. 0.10E+00   11.2     1.8140E-09       -29.3426023664  3.30E-09
    18 Broy./Diag. 0.10E+00   11.2     3.0958E-09       -29.3426023541  1.23E-08
    19 Broy./Diag. 0.10E+00   11.2     6.8588E-10       -29.3426023553 -1.20E-09

  *** SCF run converged in    19 steps ***


  Electronic density on regular grids:         -8.0000000000       -0.0000000000
  Core density on regular grids:                8.0000000000        0.0000000000
  Total charge density on r-space grids:       -0.0000000000
  Total charge density g-space grids:          -0.0000000000

  Overlap energy of the core charge distribution:               0.00000000000000
  Self energy of the core charge distribution:                -27.77548719004339
  Core Hamiltonian energy:                                      0.93861427084727
  Hartree energy:                                               3.19393499334958
  Exchange-correlation energy:                                 -5.69963407926227
  Electronic entropic energy:                                  -0.00003035018155
  Fermi energy:                                                 0.25376210946538

  Total energy:                                               -29.34260235529041

 !-----------------------------------------------------------------------------!
                     Mulliken Population Analysis

 #  Atom  Element  Kind  Atomic population                           Net charge
       1     Be       1          4.000000                             -0.000000
       2     Be       1          4.000000                              0.000000
 # Total charge                              8.000000                  0.000000

 !-----------------------------------------------------------------------------!

 !-----------------------------------------------------------------------------!
                           Hirshfeld Charges

  #Atom  Element  Kind  Ref Charge     Population                    Net charge
      1       Be     1       4.000          4.000                         0.000
      2       Be     1       4.000          4.000                         0.000

  Total Charge                                                            0.000
 !-----------------------------------------------------------------------------!

 KPOINTS| Band Structure Calculation
 KPOINTS| Number of k-point sets                                               1
 KPOINTS| Number of added MOs/bands                                           -1
 KPOINTS| Number of k-points in set    1                                     148
 KPOINTS| In units of b-vector [2pi/Bohr]
 KPOINTS| Special point     1 not specifi     0.000000     0.000000     0.000000
 KPOINTS| Special point     2 not specifi     0.500000     0.000000     0.000000
 KPOINTS| Special point     3 not specifi     0.333333     0.333333     0.000000
 KPOINTS| Special point     4 not specifi     0.000000     0.000000     0.000000
 KPOINTS| Time for k-point line                                            4.243

 ENERGY| Total FORCE_EVAL ( QS ) energy [hartree]            -29.342602355290406

 -------------------------------------------------------------------------------
 -                                                                             -
 -                                DBCSR STATISTICS                             -
 -                                                                             -
 -------------------------------------------------------------------------------
 COUNTER                                    TOTAL       BLAS       SMM       ACC
 flops inhomo. stacks                           0       0.0%      0.0%      0.0%
 flops total                         0.000000E+00       0.0%      0.0%      0.0%
 flops max/rank                      0.000000E+00       0.0%      0.0%      0.0%
 matmuls inhomo. stacks                         0       0.0%      0.0%      0.0%
 matmuls total                                  0       0.0%      0.0%      0.0%
 number of processed stacks                     0       0.0%      0.0%      0.0%
 average stack size                                     0.0       0.0       0.0
 marketing flops                     0.000000E+00
 -------------------------------------------------------------------------------
 -                                                                             -
 -                      DBCSR MESSAGE PASSING PERFORMANCE                      -
 -                                                                             -
 -------------------------------------------------------------------------------
 ROUTINE             CALLS      AVE VOLUME [Bytes]
 MP_Bcast                1                     12.
 MP_Allreduce           19                     21.
 MP_Alltoall        465300                   2912.
 -------------------------------------------------------------------------------

 -------------------------------------------------------------------------------
 -                                                                             -
 -                                DBM STATISTICS                               -
 -                                                                             -
 -------------------------------------------------------------------------------
    M  x    N  x    K                                          COUNT     PERCENT
 -------------------------------------------------------------------------------

 -------------------------------------------------------------------------------
 -                                                                             -
 -                                GRID STATISTICS                              -
 -                                                                             -
 -------------------------------------------------------------------------------
 LP    KERNEL             BACKEND                              COUNT     PERCENT
 4     collocate general  CPU                                1211520      51.28%
 4     integrate general  CPU                                1150944      48.72%
 0     collocate general  CPU                                      4       0.00%
 0     integrate general  CPU                                      2       0.00%
 -------------------------------------------------------------------------------

 MEMORY| Estimated peak process memory [MiB]                                 445

 -------------------------------------------------------------------------------
 ----                             MULTIGRID INFO                            ----
 -------------------------------------------------------------------------------
 count for grid        1:         177060          cutoff [a.u.]          500.00
 count for grid        2:          69380          cutoff [a.u.]          166.67
 count for grid        3:          63180          cutoff [a.u.]           55.56
 count for grid        4:         115314          cutoff [a.u.]           18.52
 total gridlevel count  :         424934

 -------------------------------------------------------------------------------
 -                                                                             -
 -                         MESSAGE PASSING PERFORMANCE                         -
 -                                                                             -
 -------------------------------------------------------------------------------

 ROUTINE             CALLS      AVE VOLUME [Bytes]
 MP_Group                6
 MP_Bcast           178829                   1482.
 MP_Allreduce       268835                     16.
 MP_Sync                 4
 MP_Alltoall           427                 341364.
 MP_SendRecv          1230                  25778.
 MP_ISendRecv         1155                  25170.
 MP_Wait            122231
 MP_comm_split           4
 MP_ISend           125020                    294.
 MP_IRecv           208432                    179.
 -------------------------------------------------------------------------------


 -------------------------------------------------------------------------------
 -                                                                             -
 -                           R E F E R E N C E S                               -
 -                                                                             -
 -------------------------------------------------------------------------------
 
 CP2K version 2025.1 (Development Version), the CP2K developers group (2025).
 CP2K is freely available from https://www.cp2k.org/ .
 
 T. D. Kuehne, M. Iannuzzi, M. Del Ben, V. V. Rybkin, P. Seewald, F. Stein, T. 
 Laino, R. Z. Khaliullin, O. Schuett, F. Schiffmann, D. Golze, J. Wilhelm, S. 
 Chulkov, M. H. Bani-Hashemian, V. Weber, U. Borstnik, M. Taillefumier, A. S. 
 Jakobovits, A. Lazzaro, H. Pabst, T. Mueller, R. Schade, M. Guidon, S. 
 Andermatt, N. Holmberg, G. K. Schenter, A. Hehn, A. Bussy, F. Belleflamme, G. 
 Tabacchi, A. Gloess, M. Lass, I. Bethune, C. J. Mundy, C. Plessl, M. Watkins, 
 J. VandeVondele, M. Krack, J. Hutter.
 J. Chem. Phys. 152, 194103 (2020).
 CP2K: An electronic structure and molecular dynamics software package - 
 Quickstep: Efficient and accurate electronic structure calculations.
 https://doi.org/10.1063/5.0007045

 O. Schuett, P. Messmer, J. Hutter, J. VandeVondele.
 Electronic Structure Calculations on Graphics Processing Units, 173-190 (2016).
 GPU-Accelerated Sparse Matrix-Matrix Multiplication for Linear Scaling Density 
 Functional Theory.
 https://doi.org/10.1002/9781118670712.ch8

 J. Hutter, M. Iannuzzi, F. Schiffmann, J. VandeVondele.
 WIREs Comput Mol Sci. 4, 15-25 (2014).
 CP2K: atomistic simulations of condensed matter systems.
 https://doi.org/10.1002/wcms.1159

 U. Borstnik, J. VandeVondele, V. Weber, J. Hutter.
 Parallel Comput. 40, 47-58 (2014).
 Sparse matrix multiplication: The distributed block-compressed sparse row 
 library.
 https://doi.org/10.1016/j.parco.2014.03.012

 J. VandeVondele, J. Hutter.
 J. Chem. Phys. 127, 114105 (2007).
 Gaussian basis sets for accurate calculations on molecular systems in gas and 
 condensed phases.
 https://doi.org/10.1063/1.2770708

 J. VandeVondele, M. Krack, F. Mohamed, M. Parrinello, T. Chassaing, J. Hutter.
 Comput. Phys. Commun. 167, 103-128 (2005).
 QUICKSTEP: Fast and accurate density functional calculations using a mixed 
 Gaussian and plane waves approach.
 https://doi.org/10.1016/j.cpc.2004.12.014

 M. Krack.
 Theor. Chem. Acc. 114, 145-152 (2005).
 Pseudopotentials for H to Kr optimized for gradient-corrected 
 exchange-correlation functionals.
 https://doi.org/10.1007/s00214-005-0655-y

 M. Frigo, S. G. Johnson.
 Proc. IEEE 93, 216-231 (2005).
 The design and implementation of FFTW3.
 https://doi.org/10.1109/JPROC.2004.840301

 C. Hartwigsen, S. Goedecker, J. Hutter.
 Phys. Rev. B 58, 3641-3662 (1998).
 Relativistic separable dual-space Gaussian pseudopotentials from H to Rn.
 https://doi.org/10.1103/PhysRevB.58.3641

 G. Lippert, J. Hutter, M. Parrinello.
 Mol. Phys. 92, 477-487 (1997).
 A hybrid Gaussian and plane wave density functional scheme.
 https://doi.org/10.1080/002689797170220

 S. Goedecker, M. Teter, J. Hutter.
 Phys. Rev. B 54, 1703-1710 (1996).
 Separable dual-space Gaussian pseudopotentials.
 https://doi.org/10.1103/PhysRevB.54.1703

 J. P. Perdew, K. Burke, M. Ernzerhof.
 Phys. Rev. Lett. 77, 3865-3868 (1996).
 Generalized gradient approximation made simple.
 https://doi.org/10.1103/PhysRevLett.77.3865


 -------------------------------------------------------------------------------
 -                                                                             -
 -                                T I M I N G                                  -
 -                                                                             -
 -------------------------------------------------------------------------------
 SUBROUTINE                       CALLS  ASD         SELF TIME        TOTAL TIME
                                MAXIMUM       AVERAGE  MAXIMUM  AVERAGE  MAXIMUM
 CP2K                                 1  1.0    0.033    0.034  229.751  229.751
 qs_energies                          1  2.0    0.016    0.040  229.511  229.534
 scf_env_do_scf                       1  3.0    0.000    0.000  217.537  217.537
 scf_env_do_scf_inner_loop           19  4.0    0.077    0.082  217.536  217.537
 do_general_diag_kp                  20  5.8    0.107    0.125  196.441  198.630
 qs_scf_new_mos_kp                   19  5.0    0.000    0.000  192.305  194.480
 mp_alltoall_i22                  79270  8.7  144.477  177.084  144.477  177.084
 dbcsr_desymmetrize_deep          44795  7.4    0.653    0.758  108.444  131.874
 rskp_transform                   10024  6.9   21.013  112.758   21.013  112.758
 dbcsr_complete_redistribute      34475  8.1    1.066    1.191   54.020   63.162
 kpoint_density_transform            19  7.0    0.090    0.100   53.360   53.518
 copy_fm_to_dbcsr                  9728  8.0    0.056    0.065   42.809   51.811
 transform_dmat                    4864  8.0    9.031   48.724    9.031   48.724
 copy_dbcsr_to_fm                 24747  6.7    0.254    0.275   16.719   16.924
 qs_ks_update_qs_env                 19  5.0    0.000    0.000    6.942   16.599
 transfer_rs2pw                      82  8.0    0.001    0.001   11.688   14.364
 mp_sendrecv_dv                    1230 10.0   11.673   14.350   11.673   14.350
 transfer_rs2pw_500                  22  8.9    0.010    0.013   11.672   14.349
 rebuild_ks_matrix                   19  6.0    0.000    0.000    3.263   12.921
 qs_ks_build_kohn_sham_matrix        19  7.0    0.145    0.149    3.263   12.921
 sum_up_and_integrate                19  8.0    0.000    0.000    2.353   11.943
 integrate_v_rspace                  19  9.0    0.030    0.155    2.353   11.943
 grid_integrate_task_list            19 10.0    2.181   11.715    2.181   11.715
 qs_rho_update_rho_low               20  5.0    0.000    0.000   11.303   11.338
 calculate_rho_elec                  20  6.0    0.005    0.019   11.303   11.338
 density_rs2pw                       20  7.0    0.001    0.001    9.211   11.318
 grid_collocate_task_list            20  7.0    2.085   11.122    2.085   11.122
 cp_dbcsr_alloc_block_from_nbl    33009  5.0    1.181    5.959    1.245    6.172
 dbcsr_dot                       178563  8.0    0.723    0.943    4.957    5.285
 mp_sum_d                        179131  9.0    4.481    5.051    4.481    5.051
 write_kpoints_restart               19  5.0    0.031    0.036    4.744    4.744
 qs_energies_init_hamiltonians        1  3.0    0.000    0.000    4.352    4.352
 mp_cart_sub                      49498  8.7    3.925    3.944    3.925    3.944
 evaluate_core_matrix_traces         19  6.0    0.000    0.000    3.679    3.679
 calculate_ptrace_kp                 38  7.0    0.129    0.131    3.678    3.679
 cp_fm_start_copy_general         29776  7.3    0.354    0.576    3.561    3.622
 mp_alltoall_d11v                237810  9.2    3.362    3.549    3.362    3.549
 build_core_hamiltonian_matrix        1  4.0    0.017    0.017    0.794    3.293
 qs_env_update_s_mstruct              1  4.0    0.000    0.000    2.729    3.123
 dbcsr_finalize                  154686  7.4    0.410    0.452    2.783    3.083
 calculate_rho_core                   1  5.0    0.000    0.001    2.504    3.074
 mp_alltoall_i11v                148220  8.9    2.313    2.360    2.313    2.360
 init_scf_run                         1  3.0    0.000    0.000    1.993    2.319
 scf_env_initial_rho_setup            1  4.0    0.000    0.000    1.993    2.319
 hybrid_alltoall_any              44795  8.4    0.179    0.192    2.112    2.248
 self_consistency_check              19  5.0    0.126    0.133    2.032    2.068
 mp_cart_create                   24754  8.7    1.932    1.991    1.932    1.991
 mp_allgather_i                   59552  8.3    1.817    1.902    1.817    1.902
 cp_sm_mix                        89281  6.0    0.225    0.353    1.785    1.833
 mixing_allocate                      1  3.0    0.027    0.027    0.423    1.831
 calculate_first_density_matrix       1  5.0    0.003    0.003    1.423    1.749
 dbcsr_merge_all                  34475 10.1    0.915    1.068    1.575    1.744
 calculate_atomic_block_dm            1  6.0    0.001    0.001    1.413    1.740
 cp_fm_write_unformatted           4699  6.0    1.525    1.682    1.530    1.735
 dbcsr_copy                      192989  6.6    1.060    1.184    1.522    1.729
 mp_max_d                         89283  7.0    1.343    1.424    1.343    1.424
 dbcsr_create_new                325337  7.5    0.833    0.898    1.038    1.129
 mp_bcast_iv                     119127  8.3    0.944    1.032    0.944    1.032
 build_overlap_matrix_low             1  5.0    0.033    0.060    0.227    0.951
 dbcsr_iterator_start            494414  8.6    0.789    0.838    0.908    0.950
 build_kinetic_matrix_low             1  5.0    0.033    0.058    0.226    0.948
 calculate_ecore_overlap              1  4.0    0.000    0.000    0.759    0.934
 qs_env_rebuild_rho                   1  5.0    0.000    0.000    0.211    0.913
 qs_rho_rebuild                       1  6.0    0.013    0.014    0.211    0.913
 dbcsr_work_create                79270  8.7    0.487    0.505    0.781    0.870
 mp_sum_iv                           24  5.3    0.705    0.868    0.705    0.868
 qs_scf_ensure_work_matrices          1  3.0    0.000    0.000    0.704    0.867
 dbcsr_data_new                  896090  9.4    0.553    0.691    0.553    0.691
 dbcsr_iterator_stop             494414  8.6    0.520    0.529    0.622    0.638
 cp_cfm_geeig_canon                 341  6.7    0.004    0.004    0.597    0.615
 dbcsr_work_destroy_all           79270  9.7    0.380    0.388    0.572    0.581
 cp_cfm_heevd                       682  7.7    0.001    0.001    0.558    0.575
 cp_cfm_heevd_base                  682  8.7    0.558    0.574    0.558    0.574
 tree_to_linear_d                 34475 11.1    0.528    0.549    0.528    0.549
 copy_dbcsr_to_fm_bc              24747  7.7    0.232    0.245    0.523    0.542
 dbcsr_data_release             1480094  9.7    0.468    0.505    0.468    0.505
 copy_fm_to_dbcsr_bc               9728  9.0    0.124    0.141    0.422    0.468
 dbcsr_destroy                   146775  6.9    0.231    0.249    0.424    0.457
 dbcsr_set                       261356  7.0    0.225    0.233    0.335    0.436
 mp_bcast_im                      59552  8.3    0.341    0.397    0.341    0.397
 build_core_ppl                       1  5.0    0.067    0.396    0.067    0.396
 kpoint_set_mo_occupation            19  7.0    0.332    0.333    0.346    0.352
 quick_finalize                   44795  9.4    0.117    0.152    0.198    0.281
 dbcsr_reserve_blocks             42737  7.1    0.089    0.226    0.103    0.258
 mp_comm_free                     74286  8.7    0.226    0.245    0.226    0.245
 dbcsr_copy_into_existing         14427  8.7    0.093    0.156    0.173    0.240
 fft_wrap_pw1pw2                    347 10.0    0.002    0.002    0.187    0.224
 mp_waitall_1                    122231  8.3    0.086    0.222    0.086    0.222
 fft3d_ps                           347 12.0    0.031    0.032    0.169    0.207
 dbcsr_zero                      261356  8.0    0.111    0.203    0.111    0.203
 fft_wrap_pw1pw2_500                230 11.3    0.005    0.005    0.165    0.202
 potential_pw2rs                     19 10.0    0.001    0.001    0.142    0.177
 mp_alltoall_z22v                   347 14.0    0.117    0.155    0.117    0.155
 dbcsr_make_index_exist          325337  8.5    0.136    0.152    0.136    0.152
 dbcsr_iterator_seek             494414  9.6    0.119    0.151    0.119    0.151
 yz_to_x                            117 13.4    0.003    0.004    0.101    0.139
 kpoint_init_cell_index               2  3.5    0.114    0.129    0.133    0.136
 dbcsr_sort_indices              122007 10.5    0.057    0.116    0.057    0.116
 cp_fm_finish_copy_general        11092  7.8    0.061    0.071    0.075    0.095
 parser_read_line                  4011  4.1    0.001    0.001    0.084    0.085
 parser_read_line_low                22  6.3    0.006    0.030    0.082    0.084
 broadcast_input_information         22  7.3    0.026    0.028    0.076    0.080
 merge_index                      34475 11.1    0.069    0.078    0.069    0.078
 dbcsr_reserve_all_blocks          9728 10.0    0.014    0.018    0.065    0.076
 qs_create_task_list                  1  5.0    0.000    0.000    0.013    0.070
 generate_qs_task_list                1  6.0    0.010    0.054    0.013    0.070
 dbcsr_switch_data_area           44795 10.4    0.042    0.045    0.056    0.065
 qs_vxc_create                       19  8.0    0.000    0.000    0.064    0.065
 xc_vxc_pw_create                    19  9.0    0.002    0.003    0.064    0.064
 topology_control                     1  2.0    0.000    0.000    0.064    0.064
 mp_irecv_iv                     119104  8.3    0.004    0.060    0.004    0.060
 kpoint_density_matrices             19  7.0    0.004    0.004    0.045    0.058
 parallel_gemm_fm                  1216  8.0    0.001    0.001    0.041    0.053
 mp_sum_dv                          314  3.2    0.027    0.053    0.027    0.053
 mp_recv_dv                       14097  7.0    0.003    0.053    0.003    0.053
 parallel_gemm_fm_gemm             1216  9.0    0.001    0.001    0.040    0.052
 cp_fm_gemm                        1216 10.0    0.039    0.051    0.039    0.051
 mp_comm_size                    179411  9.0    0.043    0.048    0.043    0.048
 create_qs_kind_set                   1  2.0    0.000    0.000    0.047    0.047
 read_qs_kind                         1  3.0    0.021    0.025    0.047    0.047
 mp_isend_dv                      29776  8.3    0.042    0.045    0.042    0.045
 mp_comm_rank                    179411  9.0    0.040    0.045    0.040    0.045
 transfer_pw2rs                      77 10.9    0.000    0.000    0.044    0.044
 xc_pw_derive                       114 11.0    0.000    0.000    0.041    0.044
 read_cell_cif                        2  4.5    0.002    0.005    0.043    0.044
 mp_isend_iv                      63496  8.3    0.006    0.043    0.006    0.043
 scf_post_calculation_gpw             1  3.0    0.000    0.000    0.043    0.043
 write_available_results              1  4.0    0.000    0.000    0.043    0.043
 write_mo_free_results                1  5.0    0.000    0.000    0.043    0.043
 cp_fm_cleanup_copy_general       20656  6.9    0.025    0.028    0.038    0.043
 coordinate_control                   1  3.0    0.001    0.001    0.040    0.040
 coordinate_control_READ_COORDI       1  4.0    0.000    0.000    0.039    0.040
 read_coordinate_cif                  1  5.0    0.002    0.002    0.039    0.040
 dbcsr_make_dbcsr_index          122007 10.6    0.030    0.039    0.030    0.039
 mp_bcast_i_src                      88  8.3    0.032    0.036    0.032    0.036
 dbcsr_get_data_size_used         79270  9.7    0.028    0.034    0.028    0.034
 xc_rho_set_and_dset_create          19 10.0    0.003    0.003    0.033    0.033
 dbcsr_distribution_new           34477  8.4    0.027    0.033    0.027    0.033
 gspace_mixing                       18  5.0    0.001    0.001    0.033    0.033
 cp_cfm_gemm                       1023  7.7    0.032    0.033    0.032    0.033
 mp_sum_i                             6  5.8    0.023    0.030    0.023    0.030
 restraint_control                    1  2.0    0.000    0.000    0.023    0.030
 xc_pw_divergence                    19 10.0    0.000    0.000    0.027    0.030
 transfer_pw2rs_500                  20 11.8    0.010    0.011    0.028    0.029
 mp_irecv_im2                     59552  8.3    0.002    0.029    0.002    0.029
 x_to_yz                            152 13.0    0.007    0.007    0.025    0.027
 mulliken_population_analysis         1  6.0    0.008    0.015    0.026    0.026
 scf_env_cleanup                      1  3.0    0.007    0.007    0.021    0.026
 broyden_mixing                      18  6.0    0.021    0.022    0.024    0.024
 mp_max_iv                            2  4.5    0.019    0.024    0.019    0.024
 -------------------------------------------------------------------------------

 The number of warnings for this run is : 1
 
 -------------------------------------------------------------------------------
  **** **** ******  **  PROGRAM ENDED AT                 2025-08-05 19:42:07.574
 ***** ** ***  *** **   PROGRAM RAN ON                              i03r04c03s10
 **    ****   ******    PROGRAM RAN BY                                   di38fab
 ***** **    ** ** **   PROGRAM PROCESS ID                                170318
  **** **  *******  **  PROGRAM STOPPED IN /hppfs/scratch/04/di38fab/09_GTH/Delt
                                           a_Set/Be/aug-TZVP-MOLOPT-GTH-tier-1/8
                                           x8x8
