 DBCSR| CPU Multiplication driver                                           BLAS (U)
 DBCSR| Multrec recursion limit                                              512 (U)
 DBCSR| Multiplication stack size                                           1000 (D)
 DBCSR| Maximum elements for images                                    UNLIMITED (U)
 DBCSR| Multiplicative factor virtual images                                   1 (U)
 DBCSR| Use multiplication densification                                       T (D)
 DBCSR| Multiplication size stacks                                             3 (U)
 DBCSR| Use memory pool for CPU allocation                                     F (U)
 DBCSR| Number of 3D layers                                               SINGLE (U)
 DBCSR| Use MPI memory allocation                                              F (U)
 DBCSR| Use RMA algorithm                                                      F (U)
 DBCSR| Use Communication thread                                               T (U)
 DBCSR| Communication thread load                                             45 (D)
 DBCSR| MPI: My process id                                                     0
 DBCSR| MPI: Number of processes                                              16
 DBCSR| OMP: Current number of threads                                        12
 DBCSR| OMP: Max number of threads                                            12
 DBCSR| Split modifier for TAS multiplication algorithm                  1.0E+00 (U)


  **** **** ******  **  PROGRAM STARTED AT               2025-08-05 23:10:19.642
 ***** ** ***  *** **   PROGRAM STARTED ON                          i04r08c03s06
 **    ****   ******    PROGRAM STARTED BY                               di38fab
 ***** **    ** ** **   PROGRAM PROCESS ID                               2175684
  **** **  *******  **  PROGRAM STARTED IN /hppfs/scratch/04/di38fab/09_GTH/Delt
                                           a_Set/K/aug-TZVP-MOLOPT-GTH-tier-1/8x
                                           8x8

 CP2K| version string:                 CP2K version 2025.1 (Development Version)
 CP2K| source code revision number:                                  git:3130539
 CP2K| cp2kflags: omp libint fftw3 libxc parallel scalapack max_contr=4         
 CP2K| is freely available from                            https://www.cp2k.org/
 CP2K| Program compiled at                         Tue Jun  3 16:14:32 CEST 2025
 CP2K| Program compiled on                                               login01
 CP2K| Program compiled for                                        Supermuc-foss
 CP2K| Data directory path                  /hppfs/work/pn36zo/di38fab/cp2k/data
 CP2K| Input file name                                                    GW.inp

 GLOBAL| Force Environment number                                              1
 GLOBAL| Basis set file name            /hppfs/scratch/04/di38fab/09_GTH/BASIS_A
 GLOBAL| Potential file name            /hppfs/work/pn36zo/di38fab/cp2k/data/GTH
 GLOBAL| MM Potential file name                                     MM_POTENTIAL
 GLOBAL| Coordinate file name                                              K.cif
 GLOBAL| Method name                                                        CP2K
 GLOBAL| Project name                                                       WSe2
 GLOBAL| Run type                                                         ENERGY
 GLOBAL| FFT library                                                       FFTW3
 GLOBAL| Diagonalization library                                       ScaLAPACK
 GLOBAL| Cholesky decomposition library                                ScaLAPACK
 GLOBAL| DGEMM library                                                      BLAS
 GLOBAL| Orthonormality check for eigenvectors                          DISABLED
 GLOBAL| Matrix multiplication library                                 ScaLAPACK
 GLOBAL| All-to-all communication in single precision                          F
 GLOBAL| FFTs using library dependent lengths                                  F
 GLOBAL| Grid backend                                                       AUTO
 GLOBAL| Global print level                                               MEDIUM
 GLOBAL| MPI I/O enabled                                                       T
 GLOBAL| Total number of message passing processes                            16
 GLOBAL| Number of threads for this process                                   12
 GLOBAL| This output is from process                                           0
 GLOBAL| OpenMP stack size per thread (OMP_STACKSIZE)                    default
 GLOBAL| CPU model name             Intel(R) Xeon(R) Platinum 8174 CPU @ 3.10GHz

 MEMORY| system memory details [Kb]
 MEMORY|                        rank 0           min           max       average
 MEMORY| MemTotal             98436664      98436664      98436712      98436676
 MEMORY| MemFree              84702936      84332376      84702936      84558905
 MEMORY| Buffers                     0             0             0             0
 MEMORY| Cached                2418532       2375460       2418532       2393262
 MEMORY| Slab                  1272920       1263708       1286628       1274680
 MEMORY| SReclaimable           281028        274240        287428        280059
 MEMORY| MemLikelyFree        87402496      87010296      87402496      87232226


 *** Fundamental physical constants (SI units) ***

 *** Literature: B. J. Mohr and B. N. Taylor,
 ***             CODATA recommended values of the fundamental physical
 ***             constants: 2006, Web Version 5.1
 ***             http://physics.nist.gov/constants

 Speed of light in vacuum [m/s]                             2.99792458000000E+08
 Magnetic constant or permeability of vacuum [N/A**2]       1.25663706143592E-06
 Electric constant or permittivity of vacuum [F/m]          8.85418781762039E-12
 Planck constant (h) [J*s]                                  6.62606896000000E-34
 Planck constant (h-bar) [J*s]                              1.05457162825177E-34
 Elementary charge [C]                                      1.60217648700000E-19
 Electron mass [kg]                                         9.10938215000000E-31
 Electron g factor [ ]                                     -2.00231930436220E+00
 Proton mass [kg]                                           1.67262163700000E-27
 Fine-structure constant                                    7.29735253760000E-03
 Rydberg constant [1/m]                                     1.09737315685270E+07
 Avogadro constant [1/mol]                                  6.02214179000000E+23
 Boltzmann constant [J/K]                                   1.38065040000000E-23
 Atomic mass unit [kg]                                      1.66053878200000E-27
 Bohr radius [m]                                            5.29177208590000E-11

 *** Conversion factors ***

 [u] -> [a.u.]                                              1.82288848426455E+03
 [Angstrom] -> [Bohr] = [a.u.]                              1.88972613288564E+00
 [a.u.] = [Bohr] -> [Angstrom]                              5.29177208590000E-01
 [a.u.] -> [s]                                              2.41888432650478E-17
 [a.u.] -> [fs]                                             2.41888432650478E-02
 [a.u.] -> [J]                                              4.35974393937059E-18
 [a.u.] -> [N]                                              8.23872205491840E-08
 [a.u.] -> [K]                                              3.15774647902944E+05
 [a.u.] -> [kJ/mol]                                         2.62549961709828E+03
 [a.u.] -> [kcal/mol]                                       6.27509468713739E+02
 [a.u.] -> [Pa]                                             2.94210107994716E+13
 [a.u.] -> [bar]                                            2.94210107994716E+08
 [a.u.] -> [atm]                                            2.90362800883016E+08
 [a.u.] -> [eV]                                             2.72113838565563E+01
 [a.u.] -> [Hz]                                             6.57968392072181E+15
 [a.u.] -> [1/cm] (wave numbers)                            2.19474631370540E+05
 [a.u./Bohr**2] -> [1/cm]                                   5.14048714338585E+03
 

 CELL_TOP| Volume [angstrom^3]:                                       147.691113
 CELL_TOP| Vector a [angstrom     5.286     0.000     0.000   |a| =     5.285890
 CELL_TOP| Vector b [angstrom     0.000     5.286     0.000   |b| =     5.285890
 CELL_TOP| Vector c [angstrom     0.000     0.000     5.286   |c| =     5.285890
 CELL_TOP| Angle (b,c), alpha [degree]:                                90.000000
 CELL_TOP| Angle (a,c), beta  [degree]:                                90.000000
 CELL_TOP| Angle (a,b), gamma [degree]:                                90.000000
 CELL_TOP| Numerically orthorhombic:                                         YES
 CELL_TOP| Periodicity                                                       XYZ

 CELL_CIF| Volume [angstrom^3]:                                       147.691113
 CELL_CIF| Vector a [angstrom     5.286     0.000     0.000   |a| =     5.285890
 CELL_CIF| Vector b [angstrom     0.000     5.286     0.000   |b| =     5.285890
 CELL_CIF| Vector c [angstrom     0.000     0.000     5.286   |c| =     5.285890
 CELL_CIF| Angle (b,c), alpha [degree]:                                90.000000
 CELL_CIF| Angle (a,c), beta  [degree]:                                90.000000
 CELL_CIF| Angle (a,b), gamma [degree]:                                90.000000
 CELL_CIF| Numerically orthorhombic:                                         YES
 CELL_CIF| Periodicity                                                       XYZ

 GENERATE|  Preliminary Number of Bonds generated:                             0
 GENERATE|  Achieved consistency in connectivity generation.

 CELL| Volume [angstrom^3]:                                           147.691113
 CELL| Vector a [angstrom]:       5.286     0.000     0.000   |a| =     5.285890
 CELL| Vector b [angstrom]:       0.000     5.286     0.000   |b| =     5.285890
 CELL| Vector c [angstrom]:       0.000     0.000     5.286   |c| =     5.285890
 CELL| Angle (b,c), alpha [degree]:                                    90.000000
 CELL| Angle (a,c), beta  [degree]:                                    90.000000
 CELL| Angle (a,b), gamma [degree]:                                    90.000000
 CELL| Numerically orthorhombic:                                             YES
 CELL| Periodicity                                                           XYZ

 CELL_REF| Volume [angstrom^3]:                                       147.691113
 CELL_REF| Vector a [angstrom     5.286     0.000     0.000   |a| =     5.285890
 CELL_REF| Vector b [angstrom     0.000     5.286     0.000   |b| =     5.285890
 CELL_REF| Vector c [angstrom     0.000     0.000     5.286   |c| =     5.285890
 CELL_REF| Angle (b,c), alpha [degree]:                                90.000000
 CELL_REF| Angle (a,c), beta  [degree]:                                90.000000
 CELL_REF| Angle (a,b), gamma [degree]:                                90.000000
 CELL_REF| Numerically orthorhombic:                                         YES
 CELL_REF| Periodicity                                                       XYZ

 *** WARNING in cryssym.F:180 :: Symmetry library SPGLIB not available ***


 *******************************************************************************
                                    Kpoints
 *******************************************************************************
 BRILLOUIN| K-point scheme                                        Monkhorst-Pack
 BRILLOUIN| K-Point grid                                             8    8    8
 BRILLOUIN| Accuracy in Symmetry determination                      0.100000E-05
 BRILLOUIN| K-Point point group symmetrization                               OFF
 BRILLOUIN| Wavefunction type                                            COMPLEX
 BRILLOUIN| List of Kpoints [2 Pi/Bohr]                                      256
 BRILLOUIN| Number           Weight            X              Y              Z
 BRILLOUIN|     1           0.00391       -0.43750       -0.43750       -0.43750
 BRILLOUIN|     2           0.00391       -0.43750       -0.43750       -0.31250
 BRILLOUIN|     3           0.00391       -0.43750       -0.43750       -0.18750
 BRILLOUIN|     4           0.00391       -0.43750       -0.43750       -0.06250
 BRILLOUIN|     5           0.00391       -0.43750       -0.43750        0.06250
 BRILLOUIN|     6           0.00391       -0.43750       -0.43750        0.18750
 BRILLOUIN|     7           0.00391       -0.43750       -0.43750        0.31250
 BRILLOUIN|     8           0.00391       -0.43750       -0.43750        0.43750
 BRILLOUIN|     9           0.00391       -0.43750       -0.31250       -0.43750
 BRILLOUIN|    10           0.00391       -0.43750       -0.31250       -0.31250
 BRILLOUIN|    11           0.00391       -0.43750       -0.31250       -0.18750
 BRILLOUIN|    12           0.00391       -0.43750       -0.31250       -0.06250
 BRILLOUIN|    13           0.00391       -0.43750       -0.31250        0.06250
 BRILLOUIN|    14           0.00391       -0.43750       -0.31250        0.18750
 BRILLOUIN|    15           0.00391       -0.43750       -0.31250        0.31250
 BRILLOUIN|    16           0.00391       -0.43750       -0.31250        0.43750
 BRILLOUIN|    17           0.00391       -0.43750       -0.18750       -0.43750
 BRILLOUIN|    18           0.00391       -0.43750       -0.18750       -0.31250
 BRILLOUIN|    19           0.00391       -0.43750       -0.18750       -0.18750
 BRILLOUIN|    20           0.00391       -0.43750       -0.18750       -0.06250
 BRILLOUIN|    21           0.00391       -0.43750       -0.18750        0.06250
 BRILLOUIN|    22           0.00391       -0.43750       -0.18750        0.18750
 BRILLOUIN|    23           0.00391       -0.43750       -0.18750        0.31250
 BRILLOUIN|    24           0.00391       -0.43750       -0.18750        0.43750
 BRILLOUIN|    25           0.00391       -0.43750       -0.06250       -0.43750
 BRILLOUIN|    26           0.00391       -0.43750       -0.06250       -0.31250
 BRILLOUIN|    27           0.00391       -0.43750       -0.06250       -0.18750
 BRILLOUIN|    28           0.00391       -0.43750       -0.06250       -0.06250
 BRILLOUIN|    29           0.00391       -0.43750       -0.06250        0.06250
 BRILLOUIN|    30           0.00391       -0.43750       -0.06250        0.18750
 BRILLOUIN|    31           0.00391       -0.43750       -0.06250        0.31250
 BRILLOUIN|    32           0.00391       -0.43750       -0.06250        0.43750
 BRILLOUIN|    33           0.00391       -0.43750        0.06250       -0.43750
 BRILLOUIN|    34           0.00391       -0.43750        0.06250       -0.31250
 BRILLOUIN|    35           0.00391       -0.43750        0.06250       -0.18750
 BRILLOUIN|    36           0.00391       -0.43750        0.06250       -0.06250
 BRILLOUIN|    37           0.00391       -0.43750        0.06250        0.06250
 BRILLOUIN|    38           0.00391       -0.43750        0.06250        0.18750
 BRILLOUIN|    39           0.00391       -0.43750        0.06250        0.31250
 BRILLOUIN|    40           0.00391       -0.43750        0.06250        0.43750
 BRILLOUIN|    41           0.00391       -0.43750        0.18750       -0.43750
 BRILLOUIN|    42           0.00391       -0.43750        0.18750       -0.31250
 BRILLOUIN|    43           0.00391       -0.43750        0.18750       -0.18750
 BRILLOUIN|    44           0.00391       -0.43750        0.18750       -0.06250
 BRILLOUIN|    45           0.00391       -0.43750        0.18750        0.06250
 BRILLOUIN|    46           0.00391       -0.43750        0.18750        0.18750
 BRILLOUIN|    47           0.00391       -0.43750        0.18750        0.31250
 BRILLOUIN|    48           0.00391       -0.43750        0.18750        0.43750
 BRILLOUIN|    49           0.00391       -0.43750        0.31250       -0.43750
 BRILLOUIN|    50           0.00391       -0.43750        0.31250       -0.31250
 BRILLOUIN|    51           0.00391       -0.43750        0.31250       -0.18750
 BRILLOUIN|    52           0.00391       -0.43750        0.31250       -0.06250
 BRILLOUIN|    53           0.00391       -0.43750        0.31250        0.06250
 BRILLOUIN|    54           0.00391       -0.43750        0.31250        0.18750
 BRILLOUIN|    55           0.00391       -0.43750        0.31250        0.31250
 BRILLOUIN|    56           0.00391       -0.43750        0.31250        0.43750
 BRILLOUIN|    57           0.00391       -0.43750        0.43750       -0.43750
 BRILLOUIN|    58           0.00391       -0.43750        0.43750       -0.31250
 BRILLOUIN|    59           0.00391       -0.43750        0.43750       -0.18750
 BRILLOUIN|    60           0.00391       -0.43750        0.43750       -0.06250
 BRILLOUIN|    61           0.00391       -0.43750        0.43750        0.06250
 BRILLOUIN|    62           0.00391       -0.43750        0.43750        0.18750
 BRILLOUIN|    63           0.00391       -0.43750        0.43750        0.31250
 BRILLOUIN|    64           0.00391       -0.43750        0.43750        0.43750
 BRILLOUIN|    65           0.00391       -0.31250       -0.43750       -0.43750
 BRILLOUIN|    66           0.00391       -0.31250       -0.43750       -0.31250
 BRILLOUIN|    67           0.00391       -0.31250       -0.43750       -0.18750
 BRILLOUIN|    68           0.00391       -0.31250       -0.43750       -0.06250
 BRILLOUIN|    69           0.00391       -0.31250       -0.43750        0.06250
 BRILLOUIN|    70           0.00391       -0.31250       -0.43750        0.18750
 BRILLOUIN|    71           0.00391       -0.31250       -0.43750        0.31250
 BRILLOUIN|    72           0.00391       -0.31250       -0.43750        0.43750
 BRILLOUIN|    73           0.00391       -0.31250       -0.31250       -0.43750
 BRILLOUIN|    74           0.00391       -0.31250       -0.31250       -0.31250
 BRILLOUIN|    75           0.00391       -0.31250       -0.31250       -0.18750
 BRILLOUIN|    76           0.00391       -0.31250       -0.31250       -0.06250
 BRILLOUIN|    77           0.00391       -0.31250       -0.31250        0.06250
 BRILLOUIN|    78           0.00391       -0.31250       -0.31250        0.18750
 BRILLOUIN|    79           0.00391       -0.31250       -0.31250        0.31250
 BRILLOUIN|    80           0.00391       -0.31250       -0.31250        0.43750
 BRILLOUIN|    81           0.00391       -0.31250       -0.18750       -0.43750
 BRILLOUIN|    82           0.00391       -0.31250       -0.18750       -0.31250
 BRILLOUIN|    83           0.00391       -0.31250       -0.18750       -0.18750
 BRILLOUIN|    84           0.00391       -0.31250       -0.18750       -0.06250
 BRILLOUIN|    85           0.00391       -0.31250       -0.18750        0.06250
 BRILLOUIN|    86           0.00391       -0.31250       -0.18750        0.18750
 BRILLOUIN|    87           0.00391       -0.31250       -0.18750        0.31250
 BRILLOUIN|    88           0.00391       -0.31250       -0.18750        0.43750
 BRILLOUIN|    89           0.00391       -0.31250       -0.06250       -0.43750
 BRILLOUIN|    90           0.00391       -0.31250       -0.06250       -0.31250
 BRILLOUIN|    91           0.00391       -0.31250       -0.06250       -0.18750
 BRILLOUIN|    92           0.00391       -0.31250       -0.06250       -0.06250
 BRILLOUIN|    93           0.00391       -0.31250       -0.06250        0.06250
 BRILLOUIN|    94           0.00391       -0.31250       -0.06250        0.18750
 BRILLOUIN|    95           0.00391       -0.31250       -0.06250        0.31250
 BRILLOUIN|    96           0.00391       -0.31250       -0.06250        0.43750
 BRILLOUIN|    97           0.00391       -0.31250        0.06250       -0.43750
 BRILLOUIN|    98           0.00391       -0.31250        0.06250       -0.31250
 BRILLOUIN|    99           0.00391       -0.31250        0.06250       -0.18750
 BRILLOUIN|   100           0.00391       -0.31250        0.06250       -0.06250
 BRILLOUIN|   101           0.00391       -0.31250        0.06250        0.06250
 BRILLOUIN|   102           0.00391       -0.31250        0.06250        0.18750
 BRILLOUIN|   103           0.00391       -0.31250        0.06250        0.31250
 BRILLOUIN|   104           0.00391       -0.31250        0.06250        0.43750
 BRILLOUIN|   105           0.00391       -0.31250        0.18750       -0.43750
 BRILLOUIN|   106           0.00391       -0.31250        0.18750       -0.31250
 BRILLOUIN|   107           0.00391       -0.31250        0.18750       -0.18750
 BRILLOUIN|   108           0.00391       -0.31250        0.18750       -0.06250
 BRILLOUIN|   109           0.00391       -0.31250        0.18750        0.06250
 BRILLOUIN|   110           0.00391       -0.31250        0.18750        0.18750
 BRILLOUIN|   111           0.00391       -0.31250        0.18750        0.31250
 BRILLOUIN|   112           0.00391       -0.31250        0.18750        0.43750
 BRILLOUIN|   113           0.00391       -0.31250        0.31250       -0.43750
 BRILLOUIN|   114           0.00391       -0.31250        0.31250       -0.31250
 BRILLOUIN|   115           0.00391       -0.31250        0.31250       -0.18750
 BRILLOUIN|   116           0.00391       -0.31250        0.31250       -0.06250
 BRILLOUIN|   117           0.00391       -0.31250        0.31250        0.06250
 BRILLOUIN|   118           0.00391       -0.31250        0.31250        0.18750
 BRILLOUIN|   119           0.00391       -0.31250        0.31250        0.31250
 BRILLOUIN|   120           0.00391       -0.31250        0.31250        0.43750
 BRILLOUIN|   121           0.00391       -0.31250        0.43750       -0.43750
 BRILLOUIN|   122           0.00391       -0.31250        0.43750       -0.31250
 BRILLOUIN|   123           0.00391       -0.31250        0.43750       -0.18750
 BRILLOUIN|   124           0.00391       -0.31250        0.43750       -0.06250
 BRILLOUIN|   125           0.00391       -0.31250        0.43750        0.06250
 BRILLOUIN|   126           0.00391       -0.31250        0.43750        0.18750
 BRILLOUIN|   127           0.00391       -0.31250        0.43750        0.31250
 BRILLOUIN|   128           0.00391       -0.31250        0.43750        0.43750
 BRILLOUIN|   129           0.00391       -0.18750       -0.43750       -0.43750
 BRILLOUIN|   130           0.00391       -0.18750       -0.43750       -0.31250
 BRILLOUIN|   131           0.00391       -0.18750       -0.43750       -0.18750
 BRILLOUIN|   132           0.00391       -0.18750       -0.43750       -0.06250
 BRILLOUIN|   133           0.00391       -0.18750       -0.43750        0.06250
 BRILLOUIN|   134           0.00391       -0.18750       -0.43750        0.18750
 BRILLOUIN|   135           0.00391       -0.18750       -0.43750        0.31250
 BRILLOUIN|   136           0.00391       -0.18750       -0.43750        0.43750
 BRILLOUIN|   137           0.00391       -0.18750       -0.31250       -0.43750
 BRILLOUIN|   138           0.00391       -0.18750       -0.31250       -0.31250
 BRILLOUIN|   139           0.00391       -0.18750       -0.31250       -0.18750
 BRILLOUIN|   140           0.00391       -0.18750       -0.31250       -0.06250
 BRILLOUIN|   141           0.00391       -0.18750       -0.31250        0.06250
 BRILLOUIN|   142           0.00391       -0.18750       -0.31250        0.18750
 BRILLOUIN|   143           0.00391       -0.18750       -0.31250        0.31250
 BRILLOUIN|   144           0.00391       -0.18750       -0.31250        0.43750
 BRILLOUIN|   145           0.00391       -0.18750       -0.18750       -0.43750
 BRILLOUIN|   146           0.00391       -0.18750       -0.18750       -0.31250
 BRILLOUIN|   147           0.00391       -0.18750       -0.18750       -0.18750
 BRILLOUIN|   148           0.00391       -0.18750       -0.18750       -0.06250
 BRILLOUIN|   149           0.00391       -0.18750       -0.18750        0.06250
 BRILLOUIN|   150           0.00391       -0.18750       -0.18750        0.18750
 BRILLOUIN|   151           0.00391       -0.18750       -0.18750        0.31250
 BRILLOUIN|   152           0.00391       -0.18750       -0.18750        0.43750
 BRILLOUIN|   153           0.00391       -0.18750       -0.06250       -0.43750
 BRILLOUIN|   154           0.00391       -0.18750       -0.06250       -0.31250
 BRILLOUIN|   155           0.00391       -0.18750       -0.06250       -0.18750
 BRILLOUIN|   156           0.00391       -0.18750       -0.06250       -0.06250
 BRILLOUIN|   157           0.00391       -0.18750       -0.06250        0.06250
 BRILLOUIN|   158           0.00391       -0.18750       -0.06250        0.18750
 BRILLOUIN|   159           0.00391       -0.18750       -0.06250        0.31250
 BRILLOUIN|   160           0.00391       -0.18750       -0.06250        0.43750
 BRILLOUIN|   161           0.00391       -0.18750        0.06250       -0.43750
 BRILLOUIN|   162           0.00391       -0.18750        0.06250       -0.31250
 BRILLOUIN|   163           0.00391       -0.18750        0.06250       -0.18750
 BRILLOUIN|   164           0.00391       -0.18750        0.06250       -0.06250
 BRILLOUIN|   165           0.00391       -0.18750        0.06250        0.06250
 BRILLOUIN|   166           0.00391       -0.18750        0.06250        0.18750
 BRILLOUIN|   167           0.00391       -0.18750        0.06250        0.31250
 BRILLOUIN|   168           0.00391       -0.18750        0.06250        0.43750
 BRILLOUIN|   169           0.00391       -0.18750        0.18750       -0.43750
 BRILLOUIN|   170           0.00391       -0.18750        0.18750       -0.31250
 BRILLOUIN|   171           0.00391       -0.18750        0.18750       -0.18750
 BRILLOUIN|   172           0.00391       -0.18750        0.18750       -0.06250
 BRILLOUIN|   173           0.00391       -0.18750        0.18750        0.06250
 BRILLOUIN|   174           0.00391       -0.18750        0.18750        0.18750
 BRILLOUIN|   175           0.00391       -0.18750        0.18750        0.31250
 BRILLOUIN|   176           0.00391       -0.18750        0.18750        0.43750
 BRILLOUIN|   177           0.00391       -0.18750        0.31250       -0.43750
 BRILLOUIN|   178           0.00391       -0.18750        0.31250       -0.31250
 BRILLOUIN|   179           0.00391       -0.18750        0.31250       -0.18750
 BRILLOUIN|   180           0.00391       -0.18750        0.31250       -0.06250
 BRILLOUIN|   181           0.00391       -0.18750        0.31250        0.06250
 BRILLOUIN|   182           0.00391       -0.18750        0.31250        0.18750
 BRILLOUIN|   183           0.00391       -0.18750        0.31250        0.31250
 BRILLOUIN|   184           0.00391       -0.18750        0.31250        0.43750
 BRILLOUIN|   185           0.00391       -0.18750        0.43750       -0.43750
 BRILLOUIN|   186           0.00391       -0.18750        0.43750       -0.31250
 BRILLOUIN|   187           0.00391       -0.18750        0.43750       -0.18750
 BRILLOUIN|   188           0.00391       -0.18750        0.43750       -0.06250
 BRILLOUIN|   189           0.00391       -0.18750        0.43750        0.06250
 BRILLOUIN|   190           0.00391       -0.18750        0.43750        0.18750
 BRILLOUIN|   191           0.00391       -0.18750        0.43750        0.31250
 BRILLOUIN|   192           0.00391       -0.18750        0.43750        0.43750
 BRILLOUIN|   193           0.00391       -0.06250       -0.43750       -0.43750
 BRILLOUIN|   194           0.00391       -0.06250       -0.43750       -0.31250
 BRILLOUIN|   195           0.00391       -0.06250       -0.43750       -0.18750
 BRILLOUIN|   196           0.00391       -0.06250       -0.43750       -0.06250
 BRILLOUIN|   197           0.00391       -0.06250       -0.43750        0.06250
 BRILLOUIN|   198           0.00391       -0.06250       -0.43750        0.18750
 BRILLOUIN|   199           0.00391       -0.06250       -0.43750        0.31250
 BRILLOUIN|   200           0.00391       -0.06250       -0.43750        0.43750
 BRILLOUIN|   201           0.00391       -0.06250       -0.31250       -0.43750
 BRILLOUIN|   202           0.00391       -0.06250       -0.31250       -0.31250
 BRILLOUIN|   203           0.00391       -0.06250       -0.31250       -0.18750
 BRILLOUIN|   204           0.00391       -0.06250       -0.31250       -0.06250
 BRILLOUIN|   205           0.00391       -0.06250       -0.31250        0.06250
 BRILLOUIN|   206           0.00391       -0.06250       -0.31250        0.18750
 BRILLOUIN|   207           0.00391       -0.06250       -0.31250        0.31250
 BRILLOUIN|   208           0.00391       -0.06250       -0.31250        0.43750
 BRILLOUIN|   209           0.00391       -0.06250       -0.18750       -0.43750
 BRILLOUIN|   210           0.00391       -0.06250       -0.18750       -0.31250
 BRILLOUIN|   211           0.00391       -0.06250       -0.18750       -0.18750
 BRILLOUIN|   212           0.00391       -0.06250       -0.18750       -0.06250
 BRILLOUIN|   213           0.00391       -0.06250       -0.18750        0.06250
 BRILLOUIN|   214           0.00391       -0.06250       -0.18750        0.18750
 BRILLOUIN|   215           0.00391       -0.06250       -0.18750        0.31250
 BRILLOUIN|   216           0.00391       -0.06250       -0.18750        0.43750
 BRILLOUIN|   217           0.00391       -0.06250       -0.06250       -0.43750
 BRILLOUIN|   218           0.00391       -0.06250       -0.06250       -0.31250
 BRILLOUIN|   219           0.00391       -0.06250       -0.06250       -0.18750
 BRILLOUIN|   220           0.00391       -0.06250       -0.06250       -0.06250
 BRILLOUIN|   221           0.00391       -0.06250       -0.06250        0.06250
 BRILLOUIN|   222           0.00391       -0.06250       -0.06250        0.18750
 BRILLOUIN|   223           0.00391       -0.06250       -0.06250        0.31250
 BRILLOUIN|   224           0.00391       -0.06250       -0.06250        0.43750
 BRILLOUIN|   225           0.00391       -0.06250        0.06250       -0.43750
 BRILLOUIN|   226           0.00391       -0.06250        0.06250       -0.31250
 BRILLOUIN|   227           0.00391       -0.06250        0.06250       -0.18750
 BRILLOUIN|   228           0.00391       -0.06250        0.06250       -0.06250
 BRILLOUIN|   229           0.00391       -0.06250        0.06250        0.06250
 BRILLOUIN|   230           0.00391       -0.06250        0.06250        0.18750
 BRILLOUIN|   231           0.00391       -0.06250        0.06250        0.31250
 BRILLOUIN|   232           0.00391       -0.06250        0.06250        0.43750
 BRILLOUIN|   233           0.00391       -0.06250        0.18750       -0.43750
 BRILLOUIN|   234           0.00391       -0.06250        0.18750       -0.31250
 BRILLOUIN|   235           0.00391       -0.06250        0.18750       -0.18750
 BRILLOUIN|   236           0.00391       -0.06250        0.18750       -0.06250
 BRILLOUIN|   237           0.00391       -0.06250        0.18750        0.06250
 BRILLOUIN|   238           0.00391       -0.06250        0.18750        0.18750
 BRILLOUIN|   239           0.00391       -0.06250        0.18750        0.31250
 BRILLOUIN|   240           0.00391       -0.06250        0.18750        0.43750
 BRILLOUIN|   241           0.00391       -0.06250        0.31250       -0.43750
 BRILLOUIN|   242           0.00391       -0.06250        0.31250       -0.31250
 BRILLOUIN|   243           0.00391       -0.06250        0.31250       -0.18750
 BRILLOUIN|   244           0.00391       -0.06250        0.31250       -0.06250
 BRILLOUIN|   245           0.00391       -0.06250        0.31250        0.06250
 BRILLOUIN|   246           0.00391       -0.06250        0.31250        0.18750
 BRILLOUIN|   247           0.00391       -0.06250        0.31250        0.31250
 BRILLOUIN|   248           0.00391       -0.06250        0.31250        0.43750
 BRILLOUIN|   249           0.00391       -0.06250        0.43750       -0.43750
 BRILLOUIN|   250           0.00391       -0.06250        0.43750       -0.31250
 BRILLOUIN|   251           0.00391       -0.06250        0.43750       -0.18750
 BRILLOUIN|   252           0.00391       -0.06250        0.43750       -0.06250
 BRILLOUIN|   253           0.00391       -0.06250        0.43750        0.06250
 BRILLOUIN|   254           0.00391       -0.06250        0.43750        0.18750
 BRILLOUIN|   255           0.00391       -0.06250        0.43750        0.31250
 BRILLOUIN|   256           0.00391       -0.06250        0.43750        0.43750
 *******************************************************************************

 *******************************************************************************
 *******************************************************************************
 **                                                                           **
 **     #####                         ##              ##                      **
 **    ##   ##            ##          ##              ##                      **
 **   ##     ##                       ##            ######                    **
 **   ##     ##  ##   ##  ##   #####  ##  ##   ####   ##    #####    #####    **
 **   ##     ##  ##   ##  ##  ##      ## ##   ##      ##   ##   ##  ##   ##   **
 **   ##  ## ##  ##   ##  ##  ##      ####     ###    ##   ######   ######    **
 **    ##  ###   ##   ##  ##  ##      ## ##      ##   ##   ##       ##        **
 **     #######   #####   ##   #####  ##  ##  ####    ##    #####   ##        **
 **           ##                                                    ##        **
 **                                                                           **
 **                                                ... make the atoms dance   **
 **                                                                           **
 **            Copyright (C) by CP2K developers group (2000-2025)             **
 **                      J. Chem. Phys. 152, 194103 (2020)                    **
 **                                                                           **
 *******************************************************************************

 DFT| Spin restricted Kohn-Sham (RKS) calculation                            RKS
 DFT| Multiplicity                                                             1
 DFT| Number of spin states                                                    1
 DFT| Charge                                                                   0
 DFT| Self-interaction correction (SIC)                                       NO
 DFT| Cutoffs: density                                              1.000000E-10
 DFT|          gradient                                             1.000000E-10
 DFT|          tau                                                  1.000000E-10
 DFT|          cutoff_smoothing_range                               0.000000E+00
 DFT| XC density smoothing                                                  NONE
 DFT| XC derivatives                                                          PW

 FUNCTIONAL| PBE:
 FUNCTIONAL| J.P.Perdew, K.Burke, M.Ernzerhof, Phys. Rev. Letter, vol. 77, n 18,
 FUNCTIONAL|  pp. 3865-3868, (1996) {spin unpolarized}                          


 QS| Method:                                                                 GPW
 QS| Density plane wave grid type                        NON-SPHERICAL FULLSPACE
 QS| Number of grid levels:                                                    4
 QS| Density cutoff [a.u.]:                                                500.0
 QS| Multi grid cutoff [a.u.]: 1) grid level                               500.0
 QS|                           2) grid level                               166.7
 QS|                           3) grid level                                55.6
 QS|                           4) grid level                                18.5
 QS| Grid level progression factor:                                          3.0
 QS| Relative density cutoff [a.u.]:                                        50.0
 QS| Interaction thresholds: eps_pgf_orb:                                1.0E-16
 QS|                         eps_filter_matrix:                          0.0E+00
 QS|                         eps_core_charge:                            1.0E-18
 QS|                         eps_rho_gspace:                             1.0E-16
 QS|                         eps_rho_rspace:                             1.0E-16
 QS|                         eps_gvg_rspace:                             1.0E-08
 QS|                         eps_ppl:                                    1.0E-02
 QS|                         eps_ppnl:                                   1.0E-10


 ATOMIC KIND INFORMATION

  1. Atomic kind: K                                     Number of atoms:       2

     Orbital Basis Set                                aug-TZVP-MOLOPT-GTH-tier-1

       Number of orbital shell sets:                                           1
       Number of orbital shells:                                              12
       Number of primitive Cartesian functions:                                7
       Number of Cartesian basis functions:                                   35
       Number of spherical basis functions:                                   32
       Norm type:                                                              2

       Normalised Cartesian orbitals:

                        Set   Shell   Orbital            Exponent    Coefficient

                          1       1    2s                0.020000       0.000000
                                                         0.030615       0.018722
                                                         0.092761       0.080620
                                                         0.271151      -0.010380
                                                         0.705531       0.079761
                                                         2.273943       0.279113
                                                         2.487480      -0.503099

                          1       2    3s                0.020000       0.000000
                                                         0.030615       0.059356
                                                         0.092761      -0.014604
                                                         0.271151      -0.095839
                                                         0.705531      -0.176029
                                                         2.273943      -0.568823
                                                         2.487480       0.801854

                          1       3    4s                0.020000       0.000000
                                                         0.030615      -0.075487
                                                         0.092761       0.258935
                                                         0.271151      -0.137458
                                                         0.705531      -0.444895
                                                         2.273943      -1.852653
                                                         2.487480       2.140575

                          1       4    5s                0.020000       0.000000
                                                         0.030615       0.002939
                                                         0.092761       0.016299
                                                         0.271151       0.145393
                                                         0.705531      -0.635934
                                                         2.273943       1.421869
                                                         2.487480       0.594527

                          1       5    6s                0.020000       0.150381
                                                         0.030615      -0.211769
                                                         0.092761       0.003366
                                                         0.271151       0.007525
                                                         0.705531       0.015416
                                                         2.273943       0.037082
                                                         2.487480       0.039664

                          1       6    3px               0.020000       0.000000
                                                         0.030615       0.005360
                                                         0.092761       0.004357
                                                         0.271151      -0.107731
                                                         0.705531      -0.537110
                                                         2.273943      -4.103766
                                                         2.487480       3.998052
                          1       6    3py               0.020000       0.000000
                                                         0.030615       0.005360
                                                         0.092761       0.004357
                                                         0.271151      -0.107731
                                                         0.705531      -0.537110
                                                         2.273943      -4.103766
                                                         2.487480       3.998052
                          1       6    3pz               0.020000       0.000000
                                                         0.030615       0.005360
                                                         0.092761       0.004357
                                                         0.271151      -0.107731
                                                         0.705531      -0.537110
                                                         2.273943      -4.103766
                                                         2.487480       3.998052

                          1       7    4px               0.020000       0.000000
                                                         0.030615       0.013730
                                                         0.092761       0.022406
                                                         0.271151       0.003292
                                                         0.705531       0.017615
                                                         2.273943       0.466005
                                                         2.487480      -0.509866
                          1       7    4py               0.020000       0.000000
                                                         0.030615       0.013730
                                                         0.092761       0.022406
                                                         0.271151       0.003292
                                                         0.705531       0.017615
                                                         2.273943       0.466005
                                                         2.487480      -0.509866
                          1       7    4pz               0.020000       0.000000
                                                         0.030615       0.013730
                                                         0.092761       0.022406
                                                         0.271151       0.003292
                                                         0.705531       0.017615
                                                         2.273943       0.466005
                                                         2.487480      -0.509866

                          1       8    5px               0.020000       0.000000
                                                         0.030615      -0.008811
                                                         0.092761       0.084775
                                                         0.271151       0.068836
                                                         0.705531      -0.408550
                                                         2.273943      -0.093738
                                                         2.487480      -0.569812
                          1       8    5py               0.020000       0.000000
                                                         0.030615      -0.008811
                                                         0.092761       0.084775
                                                         0.271151       0.068836
                                                         0.705531      -0.408550
                                                         2.273943      -0.093738
                                                         2.487480      -0.569812
                          1       8    5pz               0.020000       0.000000
                                                         0.030615      -0.008811
                                                         0.092761       0.084775
                                                         0.271151       0.068836
                                                         0.705531      -0.408550
                                                         2.273943      -0.093738
                                                         2.487480      -0.569812

                          1       9    6px               0.020000      -0.010803
                                                         0.030615       0.000145
                                                         0.092761       0.000016
                                                         0.271151       0.000061
                                                         0.705531       0.000203
                                                         2.273943       0.000877
                                                         2.487480       0.000981
                          1       9    6py               0.020000      -0.010803
                                                         0.030615       0.000145
                                                         0.092761       0.000016
                                                         0.271151       0.000061
                                                         0.705531       0.000203
                                                         2.273943       0.000877
                                                         2.487480       0.000981
                          1       9    6pz               0.020000      -0.010803
                                                         0.030615       0.000145
                                                         0.092761       0.000016
                                                         0.271151       0.000061
                                                         0.705531       0.000203
                                                         2.273943       0.000877
                                                         2.487480       0.000981

                          1      10    4dx2              0.020000       0.000000
                                                         0.030615       0.001026
                                                         0.092761       0.010861
                                                         0.271151       0.053850
                                                         0.705531       0.224873
                                                         2.273943       1.242869
                                                         2.487480      -0.388058
                          1      10    4dxy              0.020000       0.000000
                                                         0.030615       0.001778
                                                         0.092761       0.018812
                                                         0.271151       0.093272
                                                         0.705531       0.389491
                                                         2.273943       2.152713
                                                         2.487480      -0.672136
                          1      10    4dxz              0.020000       0.000000
                                                         0.030615       0.001778
                                                         0.092761       0.018812
                                                         0.271151       0.093272
                                                         0.705531       0.389491
                                                         2.273943       2.152713
                                                         2.487480      -0.672136
                          1      10    4dy2              0.020000       0.000000
                                                         0.030615       0.001026
                                                         0.092761       0.010861
                                                         0.271151       0.053850
                                                         0.705531       0.224873
                                                         2.273943       1.242869
                                                         2.487480      -0.388058
                          1      10    4dyz              0.020000       0.000000
                                                         0.030615       0.001778
                                                         0.092761       0.018812
                                                         0.271151       0.093272
                                                         0.705531       0.389491
                                                         2.273943       2.152713
                                                         2.487480      -0.672136
                          1      10    4dz2              0.020000       0.000000
                                                         0.030615       0.001026
                                                         0.092761       0.010861
                                                         0.271151       0.053850
                                                         0.705531       0.224873
                                                         2.273943       1.242869
                                                         2.487480      -0.388058

                          1      11    5dx2              0.020000       0.000000
                                                         0.030615       0.002322
                                                         0.092761       0.004781
                                                         0.271151      -0.073890
                                                         0.705531      -0.337858
                                                         2.273943      -0.760843
                                                         2.487480      -0.368206
                          1      11    5dxy              0.020000       0.000000
                                                         0.030615       0.004021
                                                         0.092761       0.008282
                                                         0.271151      -0.127981
                                                         0.705531      -0.585187
                                                         2.273943      -1.317819
                                                         2.487480      -0.637752
                          1      11    5dxz              0.020000       0.000000
                                                         0.030615       0.004021
                                                         0.092761       0.008282
                                                         0.271151      -0.127981
                                                         0.705531      -0.585187
                                                         2.273943      -1.317819
                                                         2.487480      -0.637752
                          1      11    5dy2              0.020000       0.000000
                                                         0.030615       0.002322
                                                         0.092761       0.004781
                                                         0.271151      -0.073890
                                                         0.705531      -0.337858
                                                         2.273943      -0.760843
                                                         2.487480      -0.368206
                          1      11    5dyz              0.020000       0.000000
                                                         0.030615       0.004021
                                                         0.092761       0.008282
                                                         0.271151      -0.127981
                                                         0.705531      -0.585187
                                                         2.273943      -1.317819
                                                         2.487480      -0.637752
                          1      11    5dz2              0.020000       0.000000
                                                         0.030615       0.002322
                                                         0.092761       0.004781
                                                         0.271151      -0.073890
                                                         0.705531      -0.337858
                                                         2.273943      -0.760843
                                                         2.487480      -0.368206

                          1      12    6dx2              0.020000      -0.001578
                                                         0.030615      -0.000404
                                                         0.092761       0.000185
                                                         0.271151       0.001211
                                                         0.705531       0.006456
                                                         2.273943       0.050054
                                                         2.487480       0.058567
                          1      12    6dxy              0.020000      -0.002733
                                                         0.030615      -0.000700
                                                         0.092761       0.000321
                                                         0.271151       0.002098
                                                         0.705531       0.011182
                                                         2.273943       0.086696
                                                         2.487480       0.101441
                          1      12    6dxz              0.020000      -0.002733
                                                         0.030615      -0.000700
                                                         0.092761       0.000321
                                                         0.271151       0.002098
                                                         0.705531       0.011182
                                                         2.273943       0.086696
                                                         2.487480       0.101441
                          1      12    6dy2              0.020000      -0.001578
                                                         0.030615      -0.000404
                                                         0.092761       0.000185
                                                         0.271151       0.001211
                                                         0.705531       0.006456
                                                         2.273943       0.050054
                                                         2.487480       0.058567
                          1      12    6dyz              0.020000      -0.002733
                                                         0.030615      -0.000700
                                                         0.092761       0.000321
                                                         0.271151       0.002098
                                                         0.705531       0.011182
                                                         2.273943       0.086696
                                                         2.487480       0.101441
                          1      12    6dz2              0.020000      -0.001578
                                                         0.030615      -0.000404
                                                         0.092761       0.000185
                                                         0.271151       0.001211
                                                         0.705531       0.006456
                                                         2.273943       0.050054
                                                         2.487480       0.058567

       Atomic covalent radius [Angstrom]:                                  2.030

       Atomic van der Waals radius [Angstrom]:                             2.750

     GTH Potential information for                                       GTH-PBE

       Description:                       Goedecker-Teter-Hutter pseudopotential
                                           Goedecker et al., PRB 54, 1703 (1996)
                                          Hartwigsen et al., PRB 58, 3641 (1998)
                                                      Krack, TCA 114, 145 (2005)

       Gaussian exponent of the core charge distribution:               3.125000
       Electronic configuration (s p d ...):                               3   6

       Parameters of the local part of the GTH pseudopotential:

                          rloc        C1          C2          C3          C4
                        0.400000   -3.363552   -1.086530

       Parameters of the non-local part of the GTH (SOC) pseudopotential:

                   l      r(l)      h(i,j,l)
                                    k(i,j,l)
                   0    0.305318   17.850623   -5.622649
                                   -5.622649    7.258808
                   1    0.316484    7.333780   -2.460945
                                   -2.460945    2.911829
                                    0.089367   -0.069860
                                   -0.069860    0.082660


 MOLECULE KIND INFORMATION


 All atoms are their own molecule, skipping detailed information


 TOTAL NUMBERS AND MAXIMUM NUMBERS

  Total number of            - Atomic kinds:                                   1
                             - Atoms:                                          2
                             - Shell sets:                                     2
                             - Shells:                                        24
                             - Primitive Cartesian functions:                 14
                             - Cartesian basis functions:                     70
                             - Spherical basis functions:                     64

  Maximum angular momentum of- Orbital basis functions:                        2
                             - Local part of the GTH pseudopotential:          2
                             - Non-local part of the GTH pseudopotential:      3


 MODULE QUICKSTEP: ATOMIC COORDINATES IN ANGSTROM

   Atom Kind Element         X             Y             Z       Z(eff)     Mass
      1    1 K    19      0.000000      0.000000      0.000000   9.0000  39.0983
      2    1 K    19      2.642945      2.642945      2.642945   9.0000  39.0983



 SCF PARAMETERS         Density guess:                                    ATOMIC
                        --------------------------------------------------------
                        max_scf:                                             500
                        max_scf_history:                                       0
                        max_diis:                                              4
                        --------------------------------------------------------
                        eps_scf:                                        1.00E-09
                        eps_scf_history:                                0.00E+00
                        eps_diis:                                       1.00E-01
                        eps_eigval:                                     1.00E-05
                        --------------------------------------------------------
                        level_shift [a.u.]:                             0.000000
                        added MOs                                        55    0
                        --------------------------------------------------------
                        Mixing method:                            BROYDEN_MIXING
                                                charge density mixing in g-space
                        --------------------------------------------------------
                        Smear method:                                FERMI_DIRAC
                        Electronic temperature [K]:                        300.0
                        Electronic temperature [a.u.]:                  9.50E-04
                        Accuracy threshold:                             1.00E-10
                        --------------------------------------------------------
                        No outer SCF

 PW_GRID| Information for grid number                                          1
 PW_GRID| Grid distributed over                                    16 processors
 PW_GRID| Real space group dimensions                                    16    1
 PW_GRID| the grid is blocked:                                                NO
 PW_GRID| Cutoff [a.u.]                                                    500.0
 PW_GRID| spherical cutoff:                                                   NO
 PW_GRID|   Bounds   1            -54      53                Points:         108
 PW_GRID|   Bounds   2            -54      53                Points:         108
 PW_GRID|   Bounds   3            -54      53                Points:         108
 PW_GRID| Volume element (a.u.^3)  0.7912E-03     Volume (a.u.^3)       996.6690
 PW_GRID| Grid span                                                    FULLSPACE
 PW_GRID|   Distribution                         Average         Max         Min
 PW_GRID|   G-Vectors                            78732.0       78732       78732
 PW_GRID|   G-Rays                                 729.0         729         729
 PW_GRID|   Real Space Points                    78732.0       81648       69984

 PW_GRID| Information for grid number                                          2
 PW_GRID| Number of the reference grid                                         1
 PW_GRID| Grid distributed over                                    16 processors
 PW_GRID| Real space group dimensions                                    16    1
 PW_GRID| the grid is blocked:                                                NO
 PW_GRID| Cutoff [a.u.]                                                    166.7
 PW_GRID| spherical cutoff:                                                   NO
 PW_GRID|   Bounds   1            -30      29                Points:          60
 PW_GRID|   Bounds   2            -30      29                Points:          60
 PW_GRID|   Bounds   3            -30      29                Points:          60
 PW_GRID| Volume element (a.u.^3)  0.4614E-02     Volume (a.u.^3)       996.6690
 PW_GRID| Grid span                                                    FULLSPACE
 PW_GRID|   Distribution                         Average         Max         Min
 PW_GRID|   G-Vectors                            13500.0       13560       13440
 PW_GRID|   G-Rays                                 225.0         226         224
 PW_GRID|   Real Space Points                    13500.0       14400       10800

 PW_GRID| Information for grid number                                          3
 PW_GRID| Number of the reference grid                                         1
 PW_GRID| Grid distributed over                                    16 processors
 PW_GRID| Real space group dimensions                                    16    1
 PW_GRID| the grid is blocked:                                                NO
 PW_GRID| Cutoff [a.u.]                                                     55.6
 PW_GRID| spherical cutoff:                                                   NO
 PW_GRID|   Bounds   1            -18      17                Points:          36
 PW_GRID|   Bounds   2            -18      17                Points:          36
 PW_GRID|   Bounds   3            -18      17                Points:          36
 PW_GRID| Volume element (a.u.^3)  0.2136E-01     Volume (a.u.^3)       996.6690
 PW_GRID| Grid span                                                    FULLSPACE
 PW_GRID|   Distribution                         Average         Max         Min
 PW_GRID|   G-Vectors                             2916.0        2952        2880
 PW_GRID|   G-Rays                                  81.0          82          80
 PW_GRID|   Real Space Points                     2916.0        3888        2592

 PW_GRID| Information for grid number                                          4
 PW_GRID| Number of the reference grid                                         1
 PW_GRID| Grid distributed over                                    16 processors
 PW_GRID| Real space group dimensions                                    16    1
 PW_GRID| the grid is blocked:                                                NO
 PW_GRID| Cutoff [a.u.]                                                     18.5
 PW_GRID| spherical cutoff:                                                   NO
 PW_GRID|   Bounds   1            -10       9                Points:          20
 PW_GRID|   Bounds   2            -10       9                Points:          20
 PW_GRID|   Bounds   3            -10       9                Points:          20
 PW_GRID| Volume element (a.u.^3)  0.1246         Volume (a.u.^3)       996.6690
 PW_GRID| Grid span                                                    FULLSPACE
 PW_GRID|   Distribution                         Average         Max         Min
 PW_GRID|   G-Vectors                              500.0         520         480
 PW_GRID|   G-Rays                                  25.0          26          24
 PW_GRID|   Real Space Points                      500.0         800         400

 POISSON| Solver                                                        PERIODIC
 POISSON| Periodicity                                                        XYZ

 RS_GRID| Information for grid number                                          1
 RS_GRID|   Bounds   1            -54      53                Points:         108
 RS_GRID|   Bounds   2            -54      53                Points:         108
 RS_GRID|   Bounds   3            -54      53                Points:         108
 RS_GRID| Real space fully replicated
 RS_GRID| Group size                                                           1

 RS_GRID| Information for grid number                                          2
 RS_GRID|   Bounds   1            -30      29                Points:          60
 RS_GRID|   Bounds   2            -30      29                Points:          60
 RS_GRID|   Bounds   3            -30      29                Points:          60
 RS_GRID| Real space fully replicated
 RS_GRID| Group size                                                           1

 RS_GRID| Information for grid number                                          3
 RS_GRID|   Bounds   1            -18      17                Points:          36
 RS_GRID|   Bounds   2            -18      17                Points:          36
 RS_GRID|   Bounds   3            -18      17                Points:          36
 RS_GRID| Real space fully replicated
 RS_GRID| Group size                                                           1

 RS_GRID| Information for grid number                                          4
 RS_GRID|   Bounds   1            -10       9                Points:          20
 RS_GRID|   Bounds   2            -10       9                Points:          20
 RS_GRID|   Bounds   3            -10       9                Points:          20
 RS_GRID| Real space fully replicated
 RS_GRID| Group size                                                           1

 Number of electrons:                                                         18
 Number of occupied orbitals:                                                  9
 Number of molecular orbitals:                                                64

 Number of orbital functions:                                                 64
 Number of independent orbital functions:                                     64

 Extrapolation method: initial_guess

 Atomic guess: The first density matrix is obtained in terms of atomic orbitals
               and electronic configurations assigned to each atomic kind

 Guess for atomic kind: K

 Electronic structure
    Total number of core electrons                                         10.00
    Total number of valence electrons                                       9.00
    Total number of electrons                                              19.00
    Multiplicity                                                   not specified
    S   [  2.00  2.00] 2.00  1.00
    P   [  6.00] 6.00


 *******************************************************************************
                  Iteration          Convergence                     Energy [au]
 *******************************************************************************
                          1        0.180844                     -28.061654144747
                          2        0.108043                     -28.066164166447
                          3        0.267105E-02                 -28.069072382684
                          4        0.642360E-05                 -28.069074477425
                          5        0.291071E-06                 -28.069074477595

 Energy components [Hartree]           Total Energy ::          -28.069074477595
                                        Band Energy ::           -6.697987546988
                                     Kinetic Energy ::           10.259174279933
                                   Potential Energy ::          -38.328248757528
                                      Virial (-V/T) ::            3.735997431343
                                        Core Energy ::          -46.581635441009
                                          XC Energy ::           -4.142932699314
                                     Coulomb Energy ::           22.655493662728
                       Total Pseudopotential Energy ::          -56.879518153915
                       Local Pseudopotential Energy ::          -62.737772479415
                    Nonlocal Pseudopotential Energy ::            5.858254325500
                                        Confinement ::            0.387084329729

 Orbital energies  State     L     Occupation   Energy[a.u.]          Energy[eV]

                       1     0          2.000      -1.291246          -35.136598
                       2     0          1.000      -0.059446           -1.617594

                       1     1          6.000      -0.676008          -18.395120


 Total Electron Density at R=0:                                         0.002063
 Re-scaling the density matrix to get the right number of electrons
                  # Electrons              Trace(P)               Scaling factor
                           18                18.000                        1.000


 SCF WAVEFUNCTION OPTIMIZATION

  Step     Update method      Time    Convergence         Total energy    Change
  ------------------------------------------------------------------------------
     1 NoMix/Diag. 0.10E+00    9.9     2.04739643       -56.5275964760 -5.65E+01
     2 Broy./Diag. 0.10E+00   10.4     0.00359859       -56.4822276954  4.54E-02
     3 Broy./Diag. 0.10E+00   10.4     0.06131900       -56.5104339742 -2.82E-02
     4 Broy./Diag. 0.10E+00   10.4     0.00306330       -56.5473305697 -3.69E-02
     5 Broy./Diag. 0.10E+00   10.4     0.02482977       -56.5396689788  7.66E-03
     6 Broy./Diag. 0.10E+00   10.4     0.00088646       -56.5203926471  1.93E-02
     7 Broy./Diag. 0.10E+00   10.4     0.00415479       -56.5161479003  4.24E-03
     8 Broy./Diag. 0.10E+00   10.4     0.00018536       -56.5119136672  4.23E-03
     9 Broy./Diag. 0.10E+00   10.4     0.00135111       -56.5115348249  3.79E-04
    10 Broy./Diag. 0.10E+00   10.4     0.00003660       -56.5104792540  1.06E-03
    11 Broy./Diag. 0.10E+00   10.4     0.00039737       -56.5109173883 -4.38E-04
    12 Broy./Diag. 0.10E+00   10.4     0.00001472       -56.5109747432 -5.74E-05
    13 Broy./Diag. 0.10E+00   10.4     0.00011574       -56.5108323793  1.42E-04
    14 Broy./Diag. 0.10E+00   10.4     0.00000110       -56.5107674541  6.49E-05
    15 Broy./Diag. 0.10E+00   10.4     0.00000449       -56.5107725179 -5.06E-06
    16 Broy./Diag. 0.10E+00   10.4     0.00000503       -56.5107764944 -3.98E-06
    17 Broy./Diag. 0.10E+00   10.4     0.00000031       -56.5107818966 -5.40E-06
    18 Broy./Diag. 0.10E+00   10.4     0.00000059       -56.5107832871 -1.39E-06
    19 Broy./Diag. 0.10E+00   10.4     0.00000045       -56.5107835149 -2.28E-07
    20 Broy./Diag. 0.10E+00   10.4     0.00000023       -56.5107833531  1.62E-07
    21 Broy./Diag. 0.10E+00   10.4     0.00000017       -56.5107831952  1.58E-07
    22 Broy./Diag. 0.10E+00   10.4     0.00000014       -56.5107831948  4.44E-10
    23 Broy./Diag. 0.10E+00   10.4     0.00000009       -56.5107832941 -9.93E-08
    24 Broy./Diag. 0.10E+00   10.4     0.00000005       -56.5107832678  2.63E-08
    25 Broy./Diag. 0.10E+00   10.4     0.00000002       -56.5107832435  2.43E-08
    26 Broy./Diag. 0.10E+00   10.4     0.00000004       -56.5107832691 -2.57E-08
    27 Broy./Diag. 0.10E+00   10.4     4.6985E-09       -56.5107832848 -1.57E-08
    28 Broy./Diag. 0.10E+00   10.4     6.7892E-09       -56.5107832929 -8.09E-09
    29 Broy./Diag. 0.10E+00   10.4     4.3230E-09       -56.5107833036 -1.07E-08
    30 Broy./Diag. 0.10E+00   10.4     1.5654E-09       -56.5107833117 -8.08E-09
    31 Broy./Diag. 0.10E+00   10.4     4.6716E-09       -56.5107833172 -5.55E-09
    32 Broy./Diag. 0.10E+00   10.4     1.3706E-09       -56.5107833185 -1.26E-09
    33 Broy./Diag. 0.10E+00   10.4     7.9113E-10       -56.5107833178  6.59E-10

  *** SCF run converged in    33 steps ***


  Electronic density on regular grids:        -18.0000000000       -0.0000000000
  Core density on regular grids:               18.0000000000        0.0000000000
  Total charge density on r-space grids:       -0.0000000000
  Total charge density g-space grids:          -0.0000000000

  Overlap energy of the core charge distribution:               0.00000000000000
  Self energy of the core charge distribution:               -114.24839066842065
  Core Hamiltonian energy:                                     26.90944410922737
  Hartree energy:                                              39.40585779990411
  Exchange-correlation energy:                                 -8.57750675536137
  Electronic entropic energy:                                  -0.00018780319177
  Fermi energy:                                                 0.04849038219321

  Total energy:                                               -56.51078331784232

 !-----------------------------------------------------------------------------!
                     Mulliken Population Analysis

 #  Atom  Element  Kind  Atomic population                           Net charge
       1     K        1          9.000001                             -0.000001
       2     K        1          8.999999                              0.000001
 # Total charge                             18.000000                  0.000000

 !-----------------------------------------------------------------------------!

 !-----------------------------------------------------------------------------!
                           Hirshfeld Charges

  #Atom  Element  Kind  Ref Charge     Population                    Net charge
      1       K      1       9.000          9.000                        -0.000
      2       K      1       9.000          9.000                         0.000

  Total Charge                                                            0.000
 !-----------------------------------------------------------------------------!

 KPOINTS| Band Structure Calculation
 KPOINTS| Number of k-point sets                                               1
 KPOINTS| Number of added MOs/bands                                           -1
 KPOINTS| Number of k-points in set    1                                     148
 KPOINTS| In units of b-vector [2pi/Bohr]
 KPOINTS| Special point     1 not specifi     0.000000     0.000000     0.000000
 KPOINTS| Special point     2 not specifi     0.500000    -0.500000     0.500000
 KPOINTS| Special point     3 not specifi     0.000000     0.000000     0.500000
 KPOINTS| Special point     4 not specifi     0.000000     0.000000     0.000000
 KPOINTS| Time for k-point line                                            3.810

 ENERGY| Total FORCE_EVAL ( QS ) energy [hartree]            -56.510783317842318

 -------------------------------------------------------------------------------
 -                                                                             -
 -                                DBCSR STATISTICS                             -
 -                                                                             -
 -------------------------------------------------------------------------------
 COUNTER                                    TOTAL       BLAS       SMM       ACC
 flops inhomo. stacks                           0       0.0%      0.0%      0.0%
 flops total                         0.000000E+00       0.0%      0.0%      0.0%
 flops max/rank                      0.000000E+00       0.0%      0.0%      0.0%
 matmuls inhomo. stacks                         0       0.0%      0.0%      0.0%
 matmuls total                                  0       0.0%      0.0%      0.0%
 number of processed stacks                     0       0.0%      0.0%      0.0%
 average stack size                                     0.0       0.0       0.0
 marketing flops                     0.000000E+00
 -------------------------------------------------------------------------------
 -                                                                             -
 -                      DBCSR MESSAGE PASSING PERFORMANCE                      -
 -                                                                             -
 -------------------------------------------------------------------------------
 ROUTINE             CALLS      AVE VOLUME [Bytes]
 MP_Bcast                1                     12.
 MP_Allreduce           19                     21.
[...]
 4     collocate ortho    CPU                                1360748      50.75%
 4     integrate ortho    CPU                                1320726      49.25%
 0     collocate general  CPU                                      4       0.00%
 0     integrate general  CPU                                      2       0.00%
 -------------------------------------------------------------------------------

 MEMORY| Estimated peak process memory [MiB]                                 613

 -------------------------------------------------------------------------------
 ----                             MULTIGRID INFO                            ----
 -------------------------------------------------------------------------------
 count for grid        1:          36872          cutoff [a.u.]          500.00
 count for grid        2:         204710          cutoff [a.u.]          166.67
 count for grid        3:          89690          cutoff [a.u.]           55.56
 count for grid        4:         185034          cutoff [a.u.]           18.52
 total gridlevel count  :         516306

 -------------------------------------------------------------------------------
 -                                                                             -
 -                         MESSAGE PASSING PERFORMANCE                         -
 -                                                                             -
 -------------------------------------------------------------------------------

 ROUTINE             CALLS      AVE VOLUME [Bytes]
 MP_Group                6
 MP_Bcast           307874                   1177.
 MP_Allreduce       278641                     25.
 MP_Sync                 4
 MP_Alltoall           599                3532815.
 MP_SendRecv          2070                 208019.
 MP_ISendRecv         1995                 204868.
 MP_Wait            210431
 MP_comm_split           4
 MP_ISend           215068                    508.
 MP_IRecv           358960                    307.
 -------------------------------------------------------------------------------


 -------------------------------------------------------------------------------
 -                                                                             -
 -                           R E F E R E N C E S                               -
 -                                                                             -
 -------------------------------------------------------------------------------
 
 CP2K version 2025.1 (Development Version), the CP2K developers group (2025).
 CP2K is freely available from https://www.cp2k.org/ .
 
 T. D. Kuehne, M. Iannuzzi, M. Del Ben, V. V. Rybkin, P. Seewald, F. Stein, T. 
 Laino, R. Z. Khaliullin, O. Schuett, F. Schiffmann, D. Golze, J. Wilhelm, S. 
 Chulkov, M. H. Bani-Hashemian, V. Weber, U. Borstnik, M. Taillefumier, A. S. 
 Jakobovits, A. Lazzaro, H. Pabst, T. Mueller, R. Schade, M. Guidon, S. 
 Andermatt, N. Holmberg, G. K. Schenter, A. Hehn, A. Bussy, F. Belleflamme, G. 
 Tabacchi, A. Gloess, M. Lass, I. Bethune, C. J. Mundy, C. Plessl, M. Watkins, 
 J. VandeVondele, M. Krack, J. Hutter.
 J. Chem. Phys. 152, 194103 (2020).
 CP2K: An electronic structure and molecular dynamics software package - 
 Quickstep: Efficient and accurate electronic structure calculations.
 https://doi.org/10.1063/5.0007045

 O. Schuett, P. Messmer, J. Hutter, J. VandeVondele.
 Electronic Structure Calculations on Graphics Processing Units, 173-190 (2016).
 GPU-Accelerated Sparse Matrix-Matrix Multiplication for Linear Scaling Density 
 Functional Theory.
 https://doi.org/10.1002/9781118670712.ch8

 J. Hutter, M. Iannuzzi, F. Schiffmann, J. VandeVondele.
 WIREs Comput Mol Sci. 4, 15-25 (2014).
 CP2K: atomistic simulations of condensed matter systems.
 https://doi.org/10.1002/wcms.1159

 U. Borstnik, J. VandeVondele, V. Weber, J. Hutter.
 Parallel Comput. 40, 47-58 (2014).
 Sparse matrix multiplication: The distributed block-compressed sparse row 
 library.
 https://doi.org/10.1016/j.parco.2014.03.012

 J. VandeVondele, J. Hutter.
 J. Chem. Phys. 127, 114105 (2007).
 Gaussian basis sets for accurate calculations on molecular systems in gas and 
 condensed phases.
 https://doi.org/10.1063/1.2770708

 J. VandeVondele, M. Krack, F. Mohamed, M. Parrinello, T. Chassaing, J. Hutter.
 Comput. Phys. Commun. 167, 103-128 (2005).
 QUICKSTEP: Fast and accurate density functional calculations using a mixed 
 Gaussian and plane waves approach.
 https://doi.org/10.1016/j.cpc.2004.12.014

 M. Krack.
 Theor. Chem. Acc. 114, 145-152 (2005).
 Pseudopotentials for H to Kr optimized for gradient-corrected 
 exchange-correlation functionals.
 https://doi.org/10.1007/s00214-005-0655-y

 M. Frigo, S. G. Johnson.
 Proc. IEEE 93, 216-231 (2005).
 The design and implementation of FFTW3.
 https://doi.org/10.1109/JPROC.2004.840301

 C. Hartwigsen, S. Goedecker, J. Hutter.
 Phys. Rev. B 58, 3641-3662 (1998).
 Relativistic separable dual-space Gaussian pseudopotentials from H to Rn.
 https://doi.org/10.1103/PhysRevB.58.3641

 G. Lippert, J. Hutter, M. Parrinello.
 Mol. Phys. 92, 477-487 (1997).
 A hybrid Gaussian and plane wave density functional scheme.
 https://doi.org/10.1080/002689797170220

 S. Goedecker, M. Teter, J. Hutter.
 Phys. Rev. B 54, 1703-1710 (1996).
 Separable dual-space Gaussian pseudopotentials.
 https://doi.org/10.1103/PhysRevB.54.1703

 J. P. Perdew, K. Burke, M. Ernzerhof.
 Phys. Rev. Lett. 77, 3865-3868 (1996).
 Generalized gradient approximation made simple.
 https://doi.org/10.1103/PhysRevLett.77.3865


 -------------------------------------------------------------------------------
 -                                                                             -
 -                                T I M I N G                                  -
 -                                                                             -
 -------------------------------------------------------------------------------
 SUBROUTINE                       CALLS  ASD         SELF TIME        TOTAL TIME
                                MAXIMUM       AVERAGE  MAXIMUM  AVERAGE  MAXIMUM
 CP2K                                 1  1.0    0.022    0.025  355.820  355.820
 qs_energies                          1  2.0    0.011    0.037  355.565  355.589
 scf_env_do_scf                       1  3.0    0.000    0.000  348.043  348.043
 scf_env_do_scf_inner_loop           33  4.0    0.080    0.087  348.043  348.043
 do_general_diag_kp                  34  5.9    0.186    0.238  317.045  322.308
 qs_scf_new_mos_kp                   33  5.0    0.000    0.000  313.304  318.556
 mp_alltoall_i22                 131260  8.7  235.778  289.125  235.778  289.125
 dbcsr_desymmetrize_deep          74374  7.4    1.094    1.340  176.531  214.820
 rskp_transform                   17192  6.9   32.731  175.645   32.731  175.645
 dbcsr_complete_redistribute      56886  8.2    1.783    2.155   83.967   98.931
 kpoint_density_transform            33  7.0    0.116    0.144   86.585   86.842
 copy_fm_to_dbcsr                 16896  8.0    0.096    0.115   69.229   83.845
 transform_dmat                    8448  8.0   14.661   78.707   14.661   78.707
 qs_ks_update_qs_env                 33  5.0    0.000    0.000   10.516   33.598
 rebuild_ks_matrix                   33  6.0    0.000    0.000    7.324   30.406
 qs_ks_build_kohn_sham_matrix        33  7.0    0.152    0.159    7.323   30.406
 sum_up_and_integrate                33  8.0    0.000    0.000    5.917   28.916
 integrate_v_rspace                  33  9.0    0.046    0.238    5.915   28.914
 grid_integrate_task_list            33 10.0    5.265   28.155    5.265   28.155
 copy_dbcsr_to_fm                 39990  6.8    0.411    0.482   23.067   23.436
 transfer_rs2pw                     138  8.0    0.002    0.002   14.483   17.663
 transfer_rs2pw_500                  36  8.9    0.155    0.174   14.367   17.543
 mp_sendrecv_dv                    2070 10.0   14.295   17.468   14.295   17.468
 qs_rho_update_rho_low               34  5.0    0.000    0.000   16.664   16.717
 calculate_rho_elec                  34  6.0    0.029    0.066   16.664   16.716
 density_rs2pw                       34  7.0    0.001    0.002   13.438   16.363
 grid_collocate_task_list            34  7.0    3.193   15.887    3.193   15.887
 cp_fm_start_copy_general         51280  7.3    0.659    1.046    5.934    6.045
 dbcsr_finalize                  176508  8.0    0.648    0.713    4.393    4.969
 write_kpoints_restart               33  5.0    0.029    0.035    4.944    4.944
 mp_cart_sub                      79982  8.8    4.717    4.747    4.717    4.747
 mp_alltoall_d11v                393780  9.3    4.184    4.312    4.184    4.312
 dbcsr_dot                       184999  8.0    0.779    1.158    3.588    3.714
 evaluate_core_matrix_traces         33  6.0    0.000    0.000    3.192    3.192
 calculate_ptrace_kp                 66  7.0    0.135    0.145    3.192    3.192
 mp_allgather_i                  102560  8.3    3.058    3.188    3.058    3.188
 mp_alltoall_i11v                245032  8.9    2.892    2.969    2.892    2.969
 mp_sum_d                        185681  9.0    2.582    2.880    2.582    2.880
 dbcsr_merge_all                  56886 10.2    1.347    1.735    2.425    2.817
 hybrid_alltoall_any              74374  8.4    0.298    0.347    2.703    2.780
 mp_cart_create                   39997  8.8    2.442    2.517    2.442    2.517
 cp_dbcsr_alloc_block_from_nbl    19821  5.0    0.440    2.148    0.490    2.338
 self_consistency_check              33  5.0    0.130    0.137    1.922    1.981
 qs_energies_init_hamiltonians        1  3.0    0.000    0.000    1.971    1.971
 cp_fm_write_unformatted           5606  6.0    1.459    1.775    1.469    1.852
 dbcsr_copy                      204697  6.7    1.050    1.175    1.584    1.831
 cp_sm_mix                        92499  6.0    0.248    0.445    1.658    1.736
 mp_bcast_iv                     205144  8.3    1.567    1.692    1.567    1.692
 dbcsr_create_new                393000  7.8    1.151    1.287    1.407    1.601
 build_core_hamiltonian_matrix        1  4.0    0.010    0.010    0.397    1.533
 qs_env_update_s_mstruct              1  4.0    0.000    0.000    1.251    1.446
 dbcsr_work_create               131260  8.7    0.801    0.853    1.264    1.433
 calculate_rho_core                   1  5.0    0.001    0.002    1.155    1.417
 cp_cfm_geeig_canon                 565  6.8    0.010    0.011    1.327    1.344
 mp_max_d                         92501  7.0    1.186    1.311    1.186    1.311
 dbcsr_iterator_start            639107  8.7    1.093    1.129    1.256    1.299
 cp_cfm_heevd                      1130  7.8    0.001    0.001    1.211    1.227
 cp_cfm_heevd_base                 1130  8.8    1.209    1.226    1.209    1.226
 init_scf_run                         1  3.0    0.000    0.000    1.071    1.192
 scf_env_initial_rho_setup            1  4.0    0.000    0.000    1.071    1.192
 dbcsr_data_new                 1437585  9.6    0.855    1.095    0.855    1.095
 dbcsr_work_destroy_all          131260  9.7    0.627    0.640    0.945    0.975
 kpoint_set_mo_occupation            33  7.0    0.908    0.914    0.944    0.964
 tree_to_linear_d                 56886 11.2    0.865    0.949    0.865    0.949
 copy_dbcsr_to_fm_bc              39990  7.8    0.380    0.399    0.852    0.884
 dbcsr_iterator_stop             639107  8.7    0.706    0.727    0.842    0.870
 copy_fm_to_dbcsr_bc              16896  9.0    0.217    0.259    0.728    0.850
 dbcsr_data_release             2225440 10.0    0.736    0.826    0.736    0.826
 fft_wrap_pw1pw2                    599 10.0    0.005    0.005    0.760    0.820
 fft_wrap_pw1pw2_500                398 11.3    0.053    0.054    0.698    0.757
 dbcsr_destroy                   208002  7.7    0.341    0.382    0.654    0.741
 mixing_allocate                      1  3.0    0.016    0.016    0.179    0.709
 fft3d_ps                           599 12.0    0.248    0.258    0.617    0.682
 calculate_first_density_matrix       1  5.0    0.002    0.002    0.542    0.663
 calculate_atomic_block_dm            1  6.0    0.001    0.001    0.536    0.658
 potential_pw2rs                     33 10.0    0.002    0.002    0.605    0.657
 dbcsr_set                       293219  7.3    0.256    0.272    0.396    0.592
 mp_waitall_1                    210431  8.4    0.282    0.517    0.282    0.517
 qs_vxc_create                       33  8.0    0.000    0.001    0.482    0.485
 xc_vxc_pw_create                    33  9.0    0.021    0.022    0.482    0.484
 mp_bcast_im                     102560  8.3    0.466    0.480    0.466    0.480
 quick_finalize                   74374  9.4    0.193    0.252    0.328    0.470
 transfer_pw2rs                     133 11.0    0.001    0.001    0.446    0.447
 gspace_mixing                       32  5.0    0.018    0.019    0.432    0.432
 mp_comm_free                    120013  8.8    0.368    0.423    0.368    0.423
 mp_alltoall_z22v                   599 14.0    0.310    0.403    0.310    0.403
 build_overlap_matrix_low             1  5.0    0.021    0.041    0.100    0.379
 build_kinetic_matrix_low             1  5.0    0.020    0.035    0.099    0.372
 broyden_mixing                      32  6.0    0.349    0.353    0.358    0.361
 calculate_ecore_overlap              1  4.0    0.000    0.000    0.291    0.360
 qs_env_rebuild_rho                   1  5.0    0.000    0.000    0.089    0.354
 qs_rho_rebuild                       1  6.0    0.008    0.008    0.089    0.354
 transfer_pw2rs_500                  34 11.9    0.186    0.198    0.336    0.346
 dbcsr_copy_into_existing         19699  9.4    0.130    0.219    0.239    0.335
 mp_sum_iv                           24  5.3    0.264    0.325    0.264    0.325
 qs_scf_ensure_work_matrices          1  3.0    0.000    0.000    0.264    0.325
 dbcsr_zero                      293219  8.3    0.140    0.321    0.140    0.321
 xc_pw_derive                       198 11.0    0.001    0.001    0.299    0.316
 dbcsr_reserve_blocks             36717  8.3    0.113    0.256    0.132    0.291
 yz_to_x                            269 12.8    0.018    0.020    0.208    0.288
 xc_rho_set_and_dset_create          33 10.0    0.012    0.016    0.257    0.263
 build_core_ppnl                      1  5.0    0.051    0.247    0.051    0.247
 cp_fm_finish_copy_general        19156  7.9    0.163    0.188    0.189    0.238
 dbcsr_iterator_seek             639107  9.7    0.163    0.226    0.163    0.226
 xc_pw_divergence                    33 10.0    0.000    0.000    0.198    0.213
 dbcsr_make_index_exist          393000  8.8    0.172    0.211    0.172    0.211
 dbcsr_sort_indices              167977 10.8    0.092    0.179    0.092    0.179
 kpoint_density_matrices             33  7.0    0.008    0.008    0.155    0.179
 x_to_yz                            330 13.2    0.035    0.037    0.156    0.168
 parallel_gemm_fm                  2112  8.0    0.002    0.002    0.144    0.167
 parallel_gemm_fm_gemm             2112  9.0    0.002    0.002    0.142    0.165
 cp_fm_gemm                        2112 10.0    0.140    0.163    0.140    0.163
 scf_post_calculation_gpw             1  3.0    0.000    0.000    0.144    0.144
 write_available_results              1  4.0    0.000    0.000    0.144    0.144
 write_mo_free_results                1  5.0    0.001    0.001    0.144    0.144
 dbcsr_reserve_all_blocks         16896 10.0    0.024    0.032    0.114    0.141
 build_core_ppl                       1  5.0    0.020    0.135    0.020    0.135
 merge_index                      56886 11.2    0.106    0.125    0.106    0.125
 dbcsr_switch_data_area           74374 10.4    0.070    0.077    0.094    0.109
 mp_isendrecv_dv                   1995 13.0    0.042    0.105    0.042    0.105
 mp_irecv_iv                     205120  8.3    0.006    0.103    0.006    0.103
 cp_cfm_gemm                       1695  7.8    0.097    0.099    0.097    0.099
 xc_functional_eval                  33 11.0    0.000    0.000    0.092    0.098
 pbe_lda_eval                        33 12.0    0.091    0.098    0.091    0.098
 mp_sum_dv                          328  3.4    0.073    0.090    0.073    0.090
 mp_isend_dv                      51280  8.3    0.078    0.088    0.078    0.088
 transfer_rs2pw_170                  34  9.0    0.023    0.025    0.080    0.087
 parser_read_line                  5135  4.1    0.002    0.002    0.085    0.087
 parser_read_line_low                23  6.2    0.006    0.031    0.084    0.085
 transfer_pw2rs_170                  33 12.0    0.031    0.034    0.076    0.084
 broadcast_input_information         23  7.2    0.026    0.030    0.077    0.081
 mp_recv_dv                       16818  7.0    0.005    0.077    0.005    0.077
 cp_fm_cleanup_copy_general       35440  7.0    0.045    0.050    0.068    0.074
 mp_isend_iv                     109192  8.3    0.009    0.070    0.009    0.070
 hirshfeld_integration                1  6.0    0.007    0.060    0.068    0.068
 topology_control                     1  2.0    0.000    0.000    0.065    0.065
 dbcsr_make_dbcsr_index          167977 10.8    0.048    0.060    0.048    0.060
 dbcsr_distribution_new           56888  8.5    0.044    0.058    0.044    0.058
 mp_comm_size                    186085  9.0    0.047    0.058    0.047    0.058
 dbcsr_get_data_size_used        131260  9.7    0.047    0.058    0.047    0.058
 kpoint_init_cell_index               2  3.5    0.047    0.052    0.055    0.058
 mp_sum_dm3                          33  8.0    0.036    0.057    0.036    0.057
 calculate_hirshfeld_normalizat       1  6.0    0.005    0.043    0.053    0.055
 qs_init_subsys                       1  2.0    0.001    0.002    0.053    0.053
 create_qs_kind_set                   1  2.0    0.000    0.000    0.052    0.052
 read_qs_kind                         1  3.0    0.026    0.028    0.052    0.052
 mp_irecv_im2                    102560  8.3    0.003    0.051    0.003    0.051
 qs_env_setup                         1  3.0    0.000    0.000    0.050    0.050
 qs_env_rebuild_pw_env                2  3.5    0.000    0.000    0.050    0.050
 pw_env_rebuild                       1  5.0    0.000    0.001    0.049    0.050
 pw_poisson_solve                    33  8.0    0.000    0.000    0.049    0.050
 pw_scatter_p                       330 12.2    0.046    0.047    0.046    0.047
 read_cell_cif                        2  4.5    0.002    0.004    0.044    0.045
 mp_comm_rank                    186085  9.0    0.041    0.045    0.041    0.045
 dbcsr_data_copy_aa2              56886 10.9    0.026    0.041    0.026    0.041
 coordinate_control                   1  3.0    0.001    0.001    0.040    0.040
 coordinate_control_READ_COORDI       1  4.0    0.000    0.000    0.039    0.040
 read_coordinate_cif                  1  5.0    0.002    0.002    0.039    0.040
 fft_wrap_pw1pw2_170                 67 10.5    0.002    0.002    0.034    0.038
 qs_create_task_list                  1  5.0    0.000    0.000    0.007    0.037
 generate_qs_task_list                1  6.0    0.005    0.028    0.007    0.037
 -------------------------------------------------------------------------------

 The number of warnings for this run is : 1
 
 -------------------------------------------------------------------------------
  **** **** ******  **  PROGRAM ENDED AT                 2025-08-05 23:16:15.882
 ***** ** ***  *** **   PROGRAM RAN ON                              i04r08c03s06
 **    ****   ******    PROGRAM RAN BY                                   di38fab
 ***** **    ** ** **   PROGRAM PROCESS ID                               2175684
  **** **  *******  **  PROGRAM STOPPED IN /hppfs/scratch/04/di38fab/09_GTH/Delt
                                           a_Set/K/aug-TZVP-MOLOPT-GTH-tier-1/8x
                                           8x8
