In                                      
   1.00000000000000     
     3.298410    0.000000    0.000000
     0.000000    3.298410    0.000000
     0.000000    0.000000    5.062560
   In
     2
Direct
  0.000000  0.000000  0.000000
  0.500000  0.500000  0.500000
 
   28   28   48
  658.35      627.49      543.60      428.32      306.52      198.12      114.98      60.999      32.813      21.047    
  14.822      10.965      8.8537      7.8593      7.5761      7.8593      8.8537      10.965      14.822      21.047    
  32.813      60.999      114.98      198.12      306.52      428.32      543.60      627.49      627.49      598.14    
  518.29      408.40      292.13      188.63      109.39      58.204      31.694      20.598      14.538      10.792    
  8.7381      7.7677      7.4906      7.7677      8.7381      10.792      14.538      20.598      31.694      58.204    
  109.39      188.63      292.13      408.40      518.29      598.14      543.60      518.29      449.25      353.91    
  252.73      162.67      94.216      50.727      28.736      19.325      13.732      10.299      8.4061      7.5027    
  7.2426      7.5027      8.4061      10.299      13.732      19.325      28.736      50.727      94.216      162.67    
  252.73      353.91      449.25      518.29      428.32      408.40      353.91      278.37      198.03      126.86    
  73.644      40.890      24.894      17.403      12.529      9.5565      7.8981      7.0911      6.8555      7.0911    
  7.8981      9.5565      12.529      17.403      24.894      40.890      73.644      126.86      198.03      278.37    
  353.91      408.40      306.52      292.13      252.73      198.03      140.09      89.514      52.872      31.392    
  21.059      15.101      11.101      8.6610      7.2693      6.5721      6.3642      6.5721      7.2693      8.6610    
  11.101      15.101      21.059      31.392      52.872      89.514      140.09      198.03      252.73      292.13    
  198.12      188.63      162.67      126.86      89.514      57.921      36.169      24.037      17.411      12.720    
  9.6226      7.7074      6.5776      5.9895      5.8093      5.9895      6.5776      7.7074      9.6226      12.720    
  17.411      24.037      36.169      57.921      89.514      126.86      162.67      188.63      114.98      109.39    
  94.216      73.644      52.872      36.169      25.279      18.786      13.977      10.517      8.2302      6.7724    
  5.8741      5.3861      5.2322      5.3861      5.8741      6.7724      8.2302      10.517      13.977      18.786    
  25.279      36.169      52.872      73.644      94.216      109.39      60.999      58.204      50.727      40.890    
  31.392      24.037      18.786      14.456      11.066      8.6467      7.0036      5.9072      5.1994      4.7994    
  4.6699      4.7994      5.1994      5.9072      7.0036      8.6467      11.066      14.456      18.786      24.037    
  31.392      40.890      50.727      58.204      32.813      31.694      28.736      24.894      21.059      17.411    
  13.977      11.066      8.8071      7.1515      5.9706      5.1410      4.5834      4.2591      4.1524      4.2591    
  4.5834      5.1410      5.9706      7.1515      8.8071      11.066      13.977      17.411      21.059      24.894    
  28.736      31.694      21.047      20.598      19.325      17.403      15.101      12.720      10.517      8.6467    
  7.1515      5.9983      5.1280      4.4887      4.0474      3.7871      3.7009      3.7871      4.0474      4.4887    
  5.1280      5.9983      7.1515      8.6467      10.517      12.720      15.101      17.403      19.325      20.598    
  14.822      14.538      13.732      12.529      11.101      9.6226      8.2302      7.0036      5.9706      5.1280    
  4.4616      3.9575      3.6052      3.3971      3.3283      3.3971      3.6052      3.9575      4.4616      5.1280    
  5.9706      7.0036      8.2302      9.6226      11.101      12.529      13.732      14.538      10.965      10.792    
  10.299      9.5565      8.6610      7.7074      6.7724      5.9072      5.1410      4.4887      3.9575      3.5498    
  3.2641      3.0960      3.0406      3.0960      3.2641      3.5498      3.9575      4.4887      5.1410      5.9072    
  6.7724      7.7074      8.6610      9.5565      10.299      10.792      8.8537      8.7381      8.4061      7.8981    
  7.2693      6.5776      5.8741      5.1994      4.5834      4.0474      3.6052      3.2641      3.0250      2.8843    
  2.8381      2.8843      3.0250      3.2641      3.6052      4.0474      4.5834      5.1994      5.8741      6.5776    
  7.2693      7.8981      8.4061      8.7381      7.8593      7.7677      7.5027      7.0911      6.5721      5.9895    
  5.3861      4.7994      4.2591      3.7871      3.3971      3.0960      2.8843      2.7596      2.7185      2.7596    
  2.8843      3.0960      3.3971      3.7871      4.2591      4.7994      5.3861      5.9895      6.5721      7.0911    
  7.5027      7.7677      7.5761      7.4906      7.2426      6.8555      6.3642      5.8093      5.2322      4.6699    
  4.1524      3.7009      3.3283      3.0406      2.8381      2.7185      2.6790      2.7185      2.8381      3.0406    
  3.3283      3.7009      4.1524      4.6699      5.2322      5.8093      6.3642      6.8555      7.2426      7.4906    
  7.8593      7.7677      7.5027      7.0911      6.5721      5.9895      5.3861      4.7994      4.2591      3.7871    
  3.3971      3.0960      2.8843      2.7596      2.7185      2.7596      2.8843      3.0960      3.3971      3.7871    
  4.2591      4.7994      5.3861      5.9895      6.5721      7.0911      7.5027      7.7677      8.8537      8.7381    
  8.4061      7.8981      7.2693      6.5776      5.8741      5.1994      4.5834      4.0474      3.6052      3.2641    
  3.0250      2.8843      2.8381      2.8843      3.0250      3.2641      3.6052      4.0474      4.5834      5.1994    
  5.8741      6.5776      7.2693      7.8981      8.4061      8.7381      10.965      10.792      10.299      9.5565    
  8.6610      7.7074      6.7724      5.9072      5.1410      4.4887      3.9575      3.5498      3.2641      3.0960    
  3.0406      3.0960      3.2641      3.5498      3.9575      4.4887      5.1410      5.9072      6.7724      7.7074    
  8.6610      9.5565      10.299      10.792      14.822      14.538      13.732      12.529      11.101      9.6226    
  8.2302      7.0036      5.9706      5.1280      4.4616      3.9575      3.6052      3.3971      3.3283      3.3971    
  3.6052      3.9575      4.4616      5.1280      5.9706      7.0036      8.2302      9.6226      11.101      12.529    
  13.732      14.538      21.047      20.598      19.325      17.403      15.101      12.720      10.517      8.6467    
  7.1515      5.9983      5.1280      4.4887      4.0474      3.7871      3.7009      3.7871      4.0474      4.4887    
  5.1280      5.9983      7.1515      8.6467      10.517      12.720      15.101      17.403      19.325      20.598    
  32.813      31.694      28.736      24.894      21.059      17.411      13.977      11.066      8.8071      7.1515    
  5.9706      5.1410      4.5834      4.2591      4.1524      4.2591      4.5834      5.1410      5.9706      7.1515    
  8.8071      11.066      13.977      17.411      21.059      24.894      28.736      31.694      60.999      58.204    
  50.727      40.890      31.392      24.037      18.786      14.456      11.066      8.6467      7.0036      5.9072    
  5.1994      4.7994      4.6699      4.7994      5.1994      5.9072      7.0036      8.6467      11.066      14.456    
  18.786      24.037      31.392      40.890      50.727      58.204      114.98      109.39      94.216      73.644    
  52.872      36.169      25.279      18.786      13.977      10.517      8.2302      6.7724      5.8741      5.3861    
  5.2322      5.3861      5.8741      6.7724      8.2302      10.517      13.977      18.786      25.279      36.169    
  52.872      73.644      94.216      109.39      198.12      188.63      162.67      126.86      89.514      57.921    
  36.169      24.037      17.411      12.720      9.6226      7.7074      6.5776      5.9895      5.8093      5.9895    
  6.5776      7.7074      9.6226      12.720      17.411      24.037      36.169      57.921      89.514      126.86    
  162.67      188.63      306.52      292.13      252.73      198.03      140.09      89.514      52.872      31.392    
  21.059      15.101      11.101      8.6610      7.2693      6.5721      6.3642      6.5721      7.2693      8.6610    
  11.101      15.101      21.059      31.392      52.872      89.514      140.09      198.03      252.73      292.13    
  428.32      408.40      353.91      278.37      198.03      126.86      73.644      40.890      24.894      17.403    
  12.529      9.5565      7.8981      7.0911      6.8555      7.0911      7.8981      9.5565      12.529      17.403    
  24.894      40.890      73.644      126.86      198.03      278.37      353.91      408.40      543.60      518.29    
  449.25      353.91      252.73      162.67      94.216      50.727      28.736      19.325      13.732      10.299    
  8.4061      7.5027      7.2426      7.5027      8.4061      10.299      13.732      19.325      28.736      50.727    
  94.216      162.67      252.73      353.91      449.25      518.29      627.49      598.14      518.29      408.40    
  292.13      188.63      109.39      58.204      31.694      20.598      14.538      10.792      8.7381      7.7677    
  7.4906      7.7677      8.7381      10.792      14.538      20.598      31.694      58.204      109.39      188.63    
  292.13      408.40      518.29      598.14      633.55      603.91      523.26      412.31      294.96      190.49    
  110.49      58.757      31.921      20.697      14.605      10.838      8.7730      7.7983      7.5201      7.7983    
  8.7730      10.838      14.605      20.697      31.921      58.757      110.49      190.49      294.96      412.31    
  523.26      603.91      603.91      575.70      498.91      393.12      281.09      181.35      105.12      56.088    
  30.857      20.259      14.327      10.668      8.6596      7.7081      7.4359      7.7081      8.6596      10.668    
  14.327      20.259      30.857      56.088      105.12      181.35      281.09      393.12      498.91      575.70    
  523.26      498.91      432.47      340.64      243.12      156.36      90.555      48.954      28.047      19.011    
  13.539      10.185      8.3336      7.4472      7.1915      7.4472      8.3336      10.185      13.539      19.011    
  28.047      48.954      90.555      156.36      243.12      340.64      432.47      498.91      412.31      393.12    
  340.64      267.83      190.41      121.91      70.843      39.586      24.389      17.128      12.363      9.4585    
  7.8347      7.0420      6.8101      7.0420      7.8347      9.4585      12.363      17.128      24.389      39.586    
  70.843      121.91      190.41      267.83      340.64      393.12      294.96      281.09      243.12      190.41    
  134.62      86.044      50.994      30.562      20.704      14.875      10.967      8.5811      7.2168      6.5310    
  6.3260      6.5310      7.2168      8.5811      10.967      14.875      20.704      30.562      50.994      86.044    
  134.62      190.41      243.12      281.09      190.49      181.35      156.36      121.91      86.044      55.811    
  35.095      23.565      17.135      12.547      9.5205      7.6459      6.5366      5.9573      5.7793      5.9573    
  6.5366      7.6459      9.5205      12.547      17.135      23.565      35.095      55.811      86.044      121.91    
  156.36      181.35      110.49      105.12      90.555      70.843      50.994      35.095      24.749      18.483    
  13.775      10.394      8.1574      6.7279      5.8444      5.3630      5.2108      5.3630      5.8444      6.7279    
  8.1574      10.394      13.775      18.483      24.749      35.095      50.994      70.843      90.555      105.12    
  58.757      56.088      48.954      39.586      30.562      23.565      18.483      14.243      10.930      8.5646    
  6.9546      5.8773      5.1800      4.7850      4.6570      4.7850      5.1800      5.8773      6.9546      8.5646    
  10.930      14.243      18.483      23.565      30.562      39.586      48.954      56.088      31.921      30.857    
  28.047      24.389      20.704      17.135      13.775      10.930      8.7213      7.0996      5.9398      5.1229    
  4.5729      4.2525      4.1470      4.2525      4.5729      5.1229      5.9398      7.0996      8.7213      10.930    
  13.775      17.135      20.704      24.389      28.047      30.857      20.697      20.259      19.011      17.128    
  14.875      12.547      10.394      8.5646      7.0996      5.9671      5.1103      4.4799      4.0441      3.7870    
  3.7018      3.7870      4.0441      4.4799      5.1103      5.9671      7.0996      8.5646      10.394      12.547    
  14.875      17.128      19.011      20.259      14.605      14.327      13.539      12.363      10.967      9.5205    
  8.1574      6.9546      5.9398      5.1103      4.4532      3.9557      3.6077      3.4021      3.3342      3.4021    
  3.6077      3.9557      4.4532      5.1103      5.9398      6.9546      8.1574      9.5205      10.967      12.363    
  13.539      14.327      10.838      10.668      10.185      9.4585      8.5811      7.6459      6.7279      5.8773    
  5.1229      4.4799      3.9557      3.5530      3.2708      3.1045      3.0498      3.1045      3.2708      3.5530    
  3.9557      4.4799      5.1229      5.8773      6.7279      7.6459      8.5811      9.4585      10.185      10.668    
  8.7730      8.6596      8.3336      7.8347      7.2168      6.5366      5.8444      5.1800      4.5729      4.0441    
  3.6077      3.2708      3.0343      2.8952      2.8494      2.8952      3.0343      3.2708      3.6077      4.0441    
  4.5729      5.1800      5.8444      6.5366      7.2168      7.8347      8.3336      8.6596      7.7983      7.7081    
  7.4472      7.0420      6.5310      5.9573      5.3630      4.7850      4.2525      3.7870      3.4021      3.1045    
  2.8952      2.7716      2.7309      2.7716      2.8952      3.1045      3.4021      3.7870      4.2525      4.7850    
  5.3630      5.9573      6.5310      7.0420      7.4472      7.7081      7.5201      7.4359      7.1915      6.8101    
  6.3260      5.7793      5.2108      4.6570      4.1470      3.7018      3.3342      3.0498      2.8494      2.7309    
  2.6918      2.7309      2.8494      3.0498      3.3342      3.7018      4.1470      4.6570      5.2108      5.7793    
  6.3260      6.8101      7.1915      7.4359      7.7983      7.7081      7.4472      7.0420      6.5310      5.9573    
  5.3630      4.7850      4.2525      3.7870      3.4021      3.1045      2.8952      2.7716      2.7309      2.7716    
  2.8952      3.1045      3.4021      3.7870      4.2525      4.7850      5.3630      5.9573      6.5310      7.0420    
  7.4472      7.7081      8.7730      8.6596      8.3336      7.8347      7.2168      6.5366      5.8444      5.1800    
  4.5729      4.0441      3.6077      3.2708      3.0343      2.8952      2.8494      2.8952      3.0343      3.2708    
  3.6077      4.0441      4.5729      5.1800      5.8444      6.5366      7.2168      7.8347      8.3336      8.6596    
  10.838      10.668      10.185      9.4585      8.5811      7.6459      6.7279      5.8773      5.1229      4.4799    
  3.9557      3.5530      3.2708      3.1045      3.0498      3.1045      3.2708      3.5530      3.9557      4.4799    
  5.1229      5.8773      6.7279      7.6459      8.5811      9.4585      10.185      10.668      14.605      14.327    
  13.539      12.363      10.967      9.5205      8.1574      6.9546      5.9398      5.1103      4.4532      3.9557    
  3.6077      3.4021      3.3342      3.4021      3.6077      3.9557      4.4532      5.1103      5.9398      6.9546    
  8.1574      9.5205      10.967      12.363      13.539      14.327      20.697      20.259      19.011      17.128    
  14.875      12.547      10.394      8.5646      7.0996      5.9671      5.1103      4.4799      4.0441      3.7870    
  3.7018      3.7870      4.0441      4.4799      5.1103      5.9671      7.0996      8.5646      10.394      12.547    
  14.875      17.128      19.011      20.259      31.921      30.857      28.047      24.389      20.704      17.135    
  13.775      10.930      8.7213      7.0996      5.9398      5.1229      4.5729      4.2525      4.1470      4.2525    
  4.5729      5.1229      5.9398      7.0996      8.7213      10.930      13.775      17.135      20.704      24.389    
  28.047      30.857      58.757      56.088      48.954      39.586      30.562      23.565      18.483      14.243    
  10.930      8.5646      6.9546      5.8773      5.1800      4.7850      4.6570      4.7850      5.1800      5.8773    
  6.9546      8.5646      10.930      14.243      18.483      23.565      30.562      39.586      48.954      56.088    
  110.49      105.12      90.555      70.843      50.994      35.095      24.749      18.483      13.775      10.394    
  8.1574      6.7279      5.8444      5.3630      5.2108      5.3630      5.8444      6.7279      8.1574      10.394    
  13.775      18.483      24.749      35.095      50.994      70.843      90.555      105.12      190.49      181.35    
  156.36      121.91      86.044      55.811      35.095      23.565      17.135      12.547      9.5205      7.6459    
  6.5366      5.9573      5.7793      5.9573      6.5366      7.6459      9.5205      12.547      17.135      23.565    
  35.095      55.811      86.044      121.91      156.36      181.35      294.96      281.09      243.12      190.41    
  134.62      86.044      50.994      30.562      20.704      14.875      10.967      8.5811      7.2168      6.5310    
  6.3260      6.5310      7.2168      8.5811      10.967      14.875      20.704      30.562      50.994      86.044    
  134.62      190.41      243.12      281.09      412.31      393.12      340.64      267.83      190.41      121.91    
  70.843      39.586      24.389      17.128      12.363      9.4585      7.8347      7.0420      6.8101      7.0420    
  7.8347      9.4585      12.363      17.128      24.389      39.586      70.843      121.91      190.41      267.83    
  340.64      393.12      523.26      498.91      432.47      340.64      243.12      156.36      90.555      48.954    
  28.047      19.011      13.539      10.185      8.3336      7.4472      7.1915      7.4472      8.3336      10.185    
  13.539      19.011      28.047      48.954      90.555      156.36      243.12      340.64      432.47      498.91    
  603.91      575.70      498.91      393.12      281.09      181.35      105.12      56.088      30.857      20.259    
  14.327      10.668      8.6596      7.7081      7.4359      7.7081      8.6596      10.668      14.327      20.259    
  30.857      56.088      105.12      181.35      281.09      393.12      498.91      575.70      564.82      538.49    
  466.74      367.74      262.73      169.26      98.056      52.621      29.504      19.695      13.983      10.472    
  8.5403      7.6211      7.3572      7.6211      8.5403      10.472      13.983      19.695      29.504      52.621    
  98.056      169.26      262.73      367.74      466.74      538.49      538.49      513.42      445.04      350.58    
  250.32      161.09      93.306      50.301      28.592      19.283      13.723      10.313      8.4330      7.5352    
  7.2767      7.5352      8.4330      10.313      13.723      19.283      28.592      50.301      93.306      161.09    
  250.32      350.58      445.04      513.42      466.74      445.04      385.75      303.63      216.32      138.80    
  80.453      44.121      26.179      18.107      12.986      9.8601      8.1247      7.2865      7.0432      7.2865    
  8.1247      9.8601      12.986      18.107      26.179      44.121      80.453      138.80      216.32      303.63    
  385.75      445.04      367.74      350.58      303.63      238.44      169.18      108.16      63.147      36.050    
  23.007      16.338      11.887      9.1777      7.6521      6.9002      6.6786      6.9002      7.6521      9.1777    
  11.887      16.338      23.007      36.050      63.147      108.16      169.18      238.44      303.63      350.58    
  262.73      250.32      216.32      169.18      119.45      76.476      45.872      28.316      19.697      14.228    
  10.583      8.3521      7.0657      6.4125      6.2158      6.4125      7.0657      8.3521      10.583      14.228    
  19.697      28.316      45.872      76.476      119.45      169.18      216.32      250.32      169.26      161.09    
  138.80      108.16      76.476      50.043      32.188      22.269      16.343      12.054      9.2290      7.4698    
  6.4189      5.8648      5.6934      5.8648      6.4189      7.4698      9.2290      12.054      16.343      22.269    
  32.188      50.043      76.476      108.16      138.80      161.09      98.056      93.306      80.453      63.147    
  45.872      32.188      23.303      17.609      13.198      10.043      7.9492      6.6005      5.7592      5.2970    
  5.1501      5.2970      5.7592      6.6005      7.9492      10.043      13.198      17.609      23.303      32.188    
  45.872      63.147      80.453      93.306      52.621      50.301      44.121      36.050      28.316      22.269    
  17.609      13.635      10.543      8.3303      6.8146      5.7917      5.1246      4.7443      4.6206      4.7443    
  5.1246      5.7917      6.8146      8.3303      10.543      13.635      17.609      22.269      28.316      36.050    
  44.121      50.301      29.504      28.592      26.179      23.007      19.697      16.343      13.198      10.543    
  8.4769      6.9514      5.8518      5.0716      4.5434      4.2347      4.1329      4.2347      4.5434      5.0716    
  5.8518      6.9514      8.4769      10.543      13.198      16.343      19.697      23.007      26.179      28.592    
  19.695      19.283      18.107      16.338      14.228      12.054      10.043      8.3303      6.9514      5.8780    
  5.0603      4.4555      4.0363      3.7886      3.7065      3.7886      4.0363      4.4555      5.0603      5.8780    
  6.9514      8.3303      10.043      12.054      14.228      16.338      18.107      19.283      13.983      13.723    
  12.986      11.887      10.583      9.2290      7.9492      6.8146      5.8518      5.0603      4.4304      3.9519    
  3.6169      3.4189      3.3535      3.4189      3.6169      3.9519      4.4304      5.0603      5.8518      6.8146    
  7.9492      9.2290      10.583      11.887      12.986      13.723      10.472      10.313      9.8601      9.1777    
  8.3521      7.4698      6.6005      5.7917      5.0716      4.4555      3.9519      3.5645      3.2925      3.1323    
  3.0796      3.1323      3.2925      3.5645      3.9519      4.4555      5.0716      5.7917      6.6005      7.4698    
  8.3521      9.1777      9.8601      10.313      8.5403      8.4330      8.1247      7.6521      7.0657      6.4189    
  5.7592      5.1246      4.5434      4.0363      3.6169      3.2925      3.0645      2.9302      2.8859      2.9302    
  3.0645      3.2925      3.6169      4.0363      4.5434      5.1246      5.7592      6.4189      7.0657      7.6521    
  8.1247      8.4330      7.6211      7.5352      7.2865      6.9002      6.4125      5.8648      5.2970      4.7443    
  4.2347      3.7886      3.4189      3.1323      2.9302      2.8106      2.7711      2.8106      2.9302      3.1323    
  3.4189      3.7886      4.2347      4.7443      5.2970      5.8648      6.4125      6.9002      7.2865      7.5352    
  7.3572      7.2767      7.0432      6.6786      6.2158      5.6934      5.1501      4.6206      4.1329      3.7065    
  3.3535      3.0796      2.8859      2.7711      2.7331      2.7711      2.8859      3.0796      3.3535      3.7065    
  4.1329      4.6206      5.1501      5.6934      6.2158      6.6786      7.0432      7.2767      7.6211      7.5352    
  7.2865      6.9002      6.4125      5.8648      5.2970      4.7443      4.2347      3.7886      3.4189      3.1323    
  2.9302      2.8106      2.7711      2.8106      2.9302      3.1323      3.4189      3.7886      4.2347      4.7443    
  5.2970      5.8648      6.4125      6.9002      7.2865      7.5352      8.5403      8.4330      8.1247      7.6521    
  7.0657      6.4189      5.7592      5.1246      4.5434      4.0363      3.6169      3.2925      3.0645      2.9302    
  2.8859      2.9302      3.0645      3.2925      3.6169      4.0363      4.5434      5.1246      5.7592      6.4189    
  7.0657      7.6521      8.1247      8.4330      10.472      10.313      9.8601      9.1777      8.3521      7.4698    
  6.6005      5.7917      5.0716      4.4555      3.9519      3.5645      3.2925      3.1323      3.0796      3.1323    
  3.2925      3.5645      3.9519      4.4555      5.0716      5.7917      6.6005      7.4698      8.3521      9.1777    
  9.8601      10.313      13.983      13.723      12.986      11.887      10.583      9.2290      7.9492      6.8146    
  5.8518      5.0603      4.4304      3.9519      3.6169      3.4189      3.3535      3.4189      3.6169      3.9519    
  4.4304      5.0603      5.8518      6.8146      7.9492      9.2290      10.583      11.887      12.986      13.723    
  19.695      19.283      18.107      16.338      14.228      12.054      10.043      8.3303      6.9514      5.8780    
  5.0603      4.4555      4.0363      3.7886      3.7065      3.7886      4.0363      4.4555      5.0603      5.8780    
  6.9514      8.3303      10.043      12.054      14.228      16.338      18.107      19.283      29.504      28.592    
  26.179      23.007      19.697      16.343      13.198      10.543      8.4769      6.9514      5.8518      5.0716    
  4.5434      4.2347      4.1329      4.2347      4.5434      5.0716      5.8518      6.9514      8.4769      10.543    
  13.198      16.343      19.697      23.007      26.179      28.592      52.621      50.301      44.121      36.050    
  28.316      22.269      17.609      13.635      10.543      8.3303      6.8146      5.7917      5.1246      4.7443    
  4.6206      4.7443      5.1246      5.7917      6.8146      8.3303      10.543      13.635      17.609      22.269    
  28.316      36.050      44.121      50.301      98.056      93.306      80.453      63.147      45.872      32.188    
  23.303      17.609      13.198      10.043      7.9492      6.6005      5.7592      5.2970      5.1501      5.2970    
  5.7592      6.6005      7.9492      10.043      13.198      17.609      23.303      32.188      45.872      63.147    
  80.453      93.306      169.26      161.09      138.80      108.16      76.476      50.043      32.188      22.269    
  16.343      12.054      9.2290      7.4698      6.4189      5.8648      5.6934      5.8648      6.4189      7.4698    
  9.2290      12.054      16.343      22.269      32.188      50.043      76.476      108.16      138.80      161.09    
  262.73      250.32      216.32      169.18      119.45      76.476      45.872      28.316      19.697      14.228    
  10.583      8.3521      7.0657      6.4125      6.2158      6.4125      7.0657      8.3521      10.583      14.228    
  19.697      28.316      45.872      76.476      119.45      169.18      216.32      250.32      367.74      350.58    
  303.63      238.44      169.18      108.16      63.147      36.050      23.007      16.338      11.887      9.1777    
  7.6521      6.9002      6.6786      6.9002      7.6521      9.1777      11.887      16.338      23.007      36.050    
  63.147      108.16      169.18      238.44      303.63      350.58      466.74      445.04      385.75      303.63    
  216.32      138.80      80.453      44.121      26.179      18.107      12.986      9.8601      8.1247      7.2865    
  7.0432      7.2865      8.1247      9.8601      12.986      18.107      26.179      44.121      80.453      138.80    
  216.32      303.63      385.75      445.04      538.49      513.42      445.04      350.58      250.32      161.09    
  93.306      50.301      28.592      19.283      13.723      10.313      8.4330      7.5352      7.2767      7.5352    
  8.4330      10.313      13.723      19.283      28.592      50.301      93.306      161.09      250.32      350.58    
  445.04      513.42      466.76      445.06      385.76      303.64      216.32      138.81      80.471      44.149    
  26.218      18.152      13.036      9.9138      8.1812      7.3447      7.1019      7.3447      8.1812      9.9138    
  13.036      18.152      26.218      44.149      80.471      138.81      216.32      303.64      385.76      445.06    
  445.06      424.36      367.79      289.38      206.00      132.07      76.625      42.329      25.508      17.780    
  12.805      9.7711      8.0836      7.2657      7.0276      7.2657      8.0836      9.7711      12.805      17.780    
  25.508      42.329      76.625      132.07      206.00      289.38      367.79      424.36      385.76      367.79    
  318.60      250.34      177.77      113.72      66.263      37.501      23.613      16.720      12.147      9.3641    
  7.8027      7.0367      6.8117      7.0367      7.8027      9.3641      12.147      16.720      23.613      37.501    
  66.263      113.72      177.77      250.34      318.60      367.79      303.64      289.38      250.34      196.14    
  138.74      88.670      52.441      31.243      21.046      15.132      11.167      8.7496      7.3712      6.6805    