In                                      
   1.00000000000000     
     3.298410    0.000000    0.000000
     0.000000    3.298410    0.000000
     0.000000    0.000000    5.062560
   In
     2
Direct
  0.000000  0.000000  0.000000
  0.500000  0.500000  0.500000
 
   28   28   48
 0.65835493898E+03 0.62749424750E+03 0.54360255425E+03 0.42832113808E+03 0.30651538522E+03
 0.19811776272E+03 0.11497903077E+03 0.60999034405E+02 0.32813265637E+02 0.21047346750E+02
 0.14821620981E+02 0.10965294769E+02 0.88536931997E+01 0.78593121381E+01 0.75760735724E+01
 0.78593121381E+01 0.88536931997E+01 0.10965294769E+02 0.14821620981E+02 0.21047346750E+02
 0.32813265637E+02 0.60999034405E+02 0.11497903077E+03 0.19811776272E+03 0.30651538522E+03
 0.42832113808E+03 0.54360255425E+03 0.62749424750E+03 0.62749424750E+03 0.59814204372E+03
 0.51828529893E+03 0.40839592417E+03 0.29212964080E+03 0.18862615577E+03 0.10938890129E+03
 0.58204435726E+02 0.31693838785E+02 0.20598113581E+02 0.14537716619E+02 0.10792015574E+02
 0.87380889050E+01 0.77677213206E+01 0.74906363444E+01 0.77677213206E+01 0.87380889050E+01
 0.10792015574E+02 0.14537716619E+02 0.20598113581E+02 0.31693838785E+02 0.58204435726E+02
 0.10938890129E+03 0.18862615577E+03 0.29212964080E+03 0.40839592417E+03 0.51828529893E+03
 0.59814204372E+03 0.54360255425E+03 0.51828529893E+03 0.44925276654E+03 0.35391467858E+03
 0.25272784374E+03 0.16267224394E+03 0.94215516088E+02 0.50727078692E+02 0.28735585554E+02
 0.19324755162E+02 0.13731694721E+02 0.10298653262E+02 0.84061154330E+01 0.75026509230E+01
 0.72426311448E+01 0.75026509230E+01 0.84061154330E+01 0.10298653262E+02 0.13731694721E+02
 0.19324755162E+02 0.28735585554E+02 0.50727078692E+02 0.94215516088E+02 0.16267224394E+03
 0.25272784374E+03 0.35391467858E+03 0.44925276654E+03 0.51828529893E+03 0.42832113808E+03
 0.40839592417E+03 0.35391467858E+03 0.27837093933E+03 0.19803193306E+03 0.12686254992E+03
 0.73643775202E+02 0.40889939390E+02 0.24894099427E+02 0.17403236816E+02 0.12528807127E+02
 0.95565190424E+01 0.78981076771E+01 0.70911349146E+01 0.68555475359E+01 0.70911349146E+01
 0.78981076771E+01 0.95565190424E+01 0.12528807127E+02 0.17403236816E+02 0.24894099427E+02
 0.40889939390E+02 0.73643775202E+02 0.12686254992E+03 0.19803193306E+03 0.27837093933E+03
 0.35391467858E+03 0.40839592417E+03 0.30651538522E+03 0.29212964080E+03 0.25272784374E+03
 0.19803193306E+03 0.14008937667E+03 0.89514012586E+02 0.52871613656E+02 0.31392202800E+02
 0.21059008348E+02 0.15101020681E+02 0.11101028062E+02 0.86610421116E+01 0.72693092615E+01
 0.65721035385E+01 0.63641746956E+01 0.65721035385E+01 0.72693092615E+01 0.86610421116E+01
 0.11101028062E+02 0.15101020681E+02 0.21059008348E+02 0.31392202800E+02 0.52871613656E+02
 0.89514012586E+02 0.14008937667E+03 0.19803193306E+03 0.25272784374E+03 0.29212964080E+03
 0.19811776272E+03 0.18862615577E+03 0.16267224394E+03 0.12686254992E+03 0.89514012586E+02
 0.57920725241E+02 0.36168826770E+02 0.24036606203E+02 0.17411199392E+02 0.12719919991E+02
 0.96226067131E+01 0.77074374953E+01 0.65775872502E+01 0.59895143301E+01 0.58092915735E+01
 0.59895143301E+01 0.65775872502E+01 0.77074374953E+01 0.96226067131E+01 0.12719919991E+02
 0.17411199392E+02 0.24036606203E+02 0.36168826770E+02 0.57920725241E+02 0.89514012586E+02
 0.12686254992E+03 0.16267224394E+03 0.18862615577E+03 0.11497903077E+03 0.10938890129E+03
 0.94215516088E+02 0.73643775202E+02 0.52871613656E+02 0.36168826770E+02 0.25278607985E+02
 0.18786356974E+02 0.13976739961E+02 0.10517081460E+02 0.82302423559E+01 0.67724049592E+01
 0.58741446010E+01 0.53861472388E+01 0.52321610316E+01 0.53861472388E+01 0.58741446010E+01
 0.67724049592E+01 0.82302423559E+01 0.10517081460E+02 0.13976739961E+02 0.18786356974E+02
 0.25278607985E+02 0.36168826770E+02 0.52871613656E+02 0.73643775202E+02 0.94215516088E+02
 0.10938890129E+03 0.60999034405E+02 0.58204435726E+02 0.50727078692E+02 0.40889939390E+02
 0.31392202800E+02 0.24036606203E+02 0.18786356974E+02 0.14455519777E+02 0.11066360547E+02
 0.86467378362E+01 0.70035947220E+01 0.59072111456E+01 0.51994420576E+01 0.47993776342E+01
 0.46698927053E+01 0.47993776342E+01 0.51994420576E+01 0.59072111456E+01 0.70035947220E+01
 0.86467378362E+01 0.11066360547E+02 0.14455519777E+02 0.18786356974E+02 0.24036606203E+02
 0.31392202800E+02 0.40889939390E+02 0.50727078692E+02 0.58204435726E+02 0.32813265637E+02
 0.31693838785E+02 0.28735585554E+02 0.24894099427E+02 0.21059008348E+02 0.17411199392E+02
 0.13976739961E+02 0.11066360547E+02 0.88070665617E+01 0.71514796762E+01 0.59706196141E+01
 0.51410132431E+01 0.45834171668E+01 0.42590856697E+01 0.41523592920E+01 0.42590856697E+01
 0.45834171668E+01 0.51410132431E+01 0.59706196141E+01 0.71514796762E+01 0.88070665617E+01
 0.11066360547E+02 0.13976739961E+02 0.17411199392E+02 0.21059008348E+02 0.24894099427E+02
 0.28735585554E+02 0.31693838785E+02 0.21047346750E+02 0.20598113581E+02 0.19324755162E+02
 0.17403236816E+02 0.15101020681E+02 0.12719919991E+02 0.10517081460E+02 0.86467378362E+01
 0.71514796762E+01 0.59983351069E+01 0.51280132740E+01 0.44887093812E+01 0.40473558247E+01
 0.37870552163E+01 0.37008691703E+01 0.37870552163E+01 0.40473558247E+01 0.44887093812E+01
 0.51280132740E+01 0.59983351069E+01 0.71514796762E+01 0.86467378362E+01 0.10517081460E+02
 0.12719919991E+02 0.15101020681E+02 0.17403236816E+02 0.19324755162E+02 0.20598113581E+02
 0.14821620981E+02 0.14537716619E+02 0.13731694721E+02 0.12528807127E+02 0.11101028062E+02
 0.96226067131E+01 0.82302423559E+01 0.70035947220E+01 0.59706196141E+01 0.51280132740E+01
 0.44615790755E+01 0.39575011561E+01 0.36052327091E+01 0.33971421401E+01 0.33283494459E+01
 0.33971421401E+01 0.36052327091E+01 0.39575011561E+01 0.44615790755E+01 0.51280132740E+01
 0.59706196141E+01 0.70035947220E+01 0.82302423559E+01 0.96226067131E+01 0.11101028062E+02
 0.12528807127E+02 0.13731694721E+02 0.14537716619E+02 0.10965294769E+02 0.10792015574E+02
 0.10298653262E+02 0.95565190424E+01 0.86610421116E+01 0.77074374953E+01 0.67724049592E+01
 0.59072111456E+01 0.51410132431E+01 0.44887093812E+01 0.39575011561E+01 0.35498368956E+01
 0.32641449936E+01 0.30959659319E+01 0.30405767114E+01 0.30959659319E+01 0.32641449936E+01
 0.35498368956E+01 0.39575011561E+01 0.44887093812E+01 0.51410132431E+01 0.59072111456E+01
 0.67724049592E+01 0.77074374953E+01 0.86610421116E+01 0.95565190424E+01 0.10298653262E+02
 0.10792015574E+02 0.88536931997E+01 0.87380889050E+01 0.84061154330E+01 0.78981076771E+01
 0.72693092615E+01 0.65775872502E+01 0.58741446010E+01 0.51994420576E+01 0.45834171668E+01
 0.40473558247E+01 0.36052327091E+01 0.32641449936E+01 0.30249589602E+01 0.28843372683E+01
 0.28380784904E+01 0.28843372683E+01 0.30249589602E+01 0.32641449936E+01 0.36052327091E+01
 0.40473558247E+01 0.45834171668E+01 0.51994420576E+01 0.58741446010E+01 0.65775872502E+01
 0.72693092615E+01 0.78981076771E+01 0.84061154330E+01 0.87380889050E+01 0.78593121381E+01
 0.77677213206E+01 0.75026509230E+01 0.70911349146E+01 0.65721035385E+01 0.59895143301E+01
 0.53861472388E+01 0.47993776342E+01 0.42590856697E+01 0.37870552163E+01 0.33971421401E+01
 0.30959659319E+01 0.28843372683E+01 0.27595957437E+01 0.27184844874E+01 0.27595957437E+01
 0.28843372683E+01 0.30959659319E+01 0.33971421401E+01 0.37870552163E+01 0.42590856697E+01
 0.47993776342E+01 0.53861472388E+01 0.59895143301E+01 0.65721035385E+01 0.70911349146E+01
 0.75026509230E+01 0.77677213206E+01 0.75760735724E+01 0.74906363444E+01 0.72426311448E+01
 0.68555475359E+01 0.63641746956E+01 0.58092915735E+01 0.52321610316E+01 0.46698927053E+01
 0.41523592920E+01 0.37008691703E+01 0.33283494459E+01 0.30405767114E+01 0.28380784904E+01
 0.27184844874E+01 0.26790152839E+01 0.27184844874E+01 0.28380784904E+01 0.30405767114E+01
 0.33283494459E+01 0.37008691703E+01 0.41523592920E+01 0.46698927053E+01 0.52321610316E+01
 0.58092915735E+01 0.63641746956E+01 0.68555475359E+01 0.72426311448E+01 0.74906363444E+01
 0.78593121381E+01 0.77677213206E+01 0.75026509230E+01 0.70911349146E+01 0.65721035385E+01
 0.59895143301E+01 0.53861472388E+01 0.47993776342E+01 0.42590856697E+01 0.37870552163E+01
 0.33971421401E+01 0.30959659319E+01 0.28843372683E+01 0.27595957437E+01 0.27184844874E+01
 0.27595957437E+01 0.28843372683E+01 0.30959659319E+01 0.33971421401E+01 0.37870552163E+01
 0.42590856697E+01 0.47993776342E+01 0.53861472388E+01 0.59895143301E+01 0.65721035385E+01
 0.70911349146E+01 0.75026509230E+01 0.77677213206E+01 0.88536931997E+01 0.87380889050E+01
 0.84061154330E+01 0.78981076771E+01 0.72693092615E+01 0.65775872502E+01 0.58741446010E+01
 0.51994420576E+01 0.45834171668E+01 0.40473558247E+01 0.36052327091E+01 0.32641449936E+01
 0.30249589602E+01 0.28843372683E+01 0.28380784904E+01 0.28843372683E+01 0.30249589602E+01
 0.32641449936E+01 0.36052327091E+01 0.40473558247E+01 0.45834171668E+01 0.51994420576E+01
 0.58741446010E+01 0.65775872502E+01 0.72693092615E+01 0.78981076771E+01 0.84061154330E+01
 0.87380889050E+01 0.10965294769E+02 0.10792015574E+02 0.10298653262E+02 0.95565190424E+01
 0.86610421116E+01 0.77074374953E+01 0.67724049592E+01 0.59072111456E+01 0.51410132431E+01
 0.44887093812E+01 0.39575011561E+01 0.35498368956E+01 0.32641449936E+01 0.30959659319E+01
 0.30405767114E+01 0.30959659319E+01 0.32641449936E+01 0.35498368956E+01 0.39575011561E+01
 0.44887093812E+01 0.51410132431E+01 0.59072111456E+01 0.67724049592E+01 0.77074374953E+01
 0.86610421116E+01 0.95565190424E+01 0.10298653262E+02 0.10792015574E+02 0.14821620981E+02
 0.14537716619E+02 0.13731694721E+02 0.12528807127E+02 0.11101028062E+02 0.96226067131E+01
 0.82302423559E+01 0.70035947220E+01 0.59706196141E+01 0.51280132740E+01 0.44615790755E+01
 0.39575011561E+01 0.36052327091E+01 0.33971421401E+01 0.33283494459E+01 0.33971421401E+01
 0.36052327091E+01 0.39575011561E+01 0.44615790755E+01 0.51280132740E+01 0.59706196141E+01
 0.70035947220E+01 0.82302423559E+01 0.96226067131E+01 0.11101028062E+02 0.12528807127E+02
 0.13731694721E+02 0.14537716619E+02 0.21047346750E+02 0.20598113581E+02 0.19324755162E+02
 0.17403236816E+02 0.15101020681E+02 0.12719919991E+02 0.10517081460E+02 0.86467378362E+01
 0.71514796762E+01 0.59983351069E+01 0.51280132740E+01 0.44887093812E+01 0.40473558247E+01
 0.37870552163E+01 0.37008691703E+01 0.37870552163E+01 0.40473558247E+01 0.44887093812E+01
 0.51280132740E+01 0.59983351069E+01 0.71514796762E+01 0.86467378362E+01 0.10517081460E+02
 0.12719919991E+02 0.15101020681E+02 0.17403236816E+02 0.19324755162E+02 0.20598113581E+02
 0.32813265637E+02 0.31693838785E+02 0.28735585554E+02 0.24894099427E+02 0.21059008348E+02
 0.17411199392E+02 0.13976739961E+02 0.11066360547E+02 0.88070665617E+01 0.71514796762E+01
 0.59706196141E+01 0.51410132431E+01 0.45834171668E+01 0.42590856697E+01 0.41523592920E+01
 0.42590856697E+01 0.45834171668E+01 0.51410132431E+01 0.59706196141E+01 0.71514796762E+01
 0.88070665617E+01 0.11066360547E+02 0.13976739961E+02 0.17411199392E+02 0.21059008348E+02
 0.24894099427E+02 0.28735585554E+02 0.31693838785E+02 0.60999034405E+02 0.58204435726E+02
 0.50727078692E+02 0.40889939390E+02 0.31392202800E+02 0.24036606203E+02 0.18786356974E+02
 0.14455519777E+02 0.11066360547E+02 0.86467378362E+01 0.70035947220E+01 0.59072111456E+01
 0.51994420576E+01 0.47993776342E+01 0.46698927053E+01 0.47993776342E+01 0.51994420576E+01
 0.59072111456E+01 0.70035947220E+01 0.86467378362E+01 0.11066360547E+02 0.14455519777E+02
 0.18786356974E+02 0.24036606203E+02 0.31392202800E+02 0.40889939390E+02 0.50727078692E+02
 0.58204435726E+02 0.11497903077E+03 0.10938890129E+03 0.94215516088E+02 0.73643775202E+02
 0.52871613656E+02 0.36168826770E+02 0.25278607985E+02 0.18786356974E+02 0.13976739961E+02
 0.10517081460E+02 0.82302423559E+01 0.67724049592E+01 0.58741446010E+01 0.53861472388E+01
 0.52321610316E+01 0.53861472388E+01 0.58741446010E+01 0.67724049592E+01 0.82302423559E+01
 0.10517081460E+02 0.13976739961E+02 0.18786356974E+02 0.25278607985E+02 0.36168826770E+02
 0.52871613656E+02 0.73643775202E+02 0.94215516088E+02 0.10938890129E+03 0.19811776272E+03
 0.18862615577E+03 0.16267224394E+03 0.12686254992E+03 0.89514012586E+02 0.57920725241E+02
 0.36168826770E+02 0.24036606203E+02 0.17411199392E+02 0.12719919991E+02 0.96226067131E+01
 0.77074374953E+01 0.65775872502E+01 0.59895143301E+01 0.58092915735E+01 0.59895143301E+01
 0.65775872502E+01 0.77074374953E+01 0.96226067131E+01 0.12719919991E+02 0.17411199392E+02
 0.24036606203E+02 0.36168826770E+02 0.57920725241E+02 0.89514012586E+02 0.12686254992E+03
 0.16267224394E+03 0.18862615577E+03 0.30651538522E+03 0.29212964080E+03 0.25272784374E+03
 0.19803193306E+03 0.14008937667E+03 0.89514012586E+02 0.52871613656E+02 0.31392202800E+02
 0.21059008348E+02 0.15101020681E+02 0.11101028062E+02 0.86610421116E+01 0.72693092615E+01
 0.65721035385E+01 0.63641746956E+01 0.65721035385E+01 0.72693092615E+01 0.86610421116E+01
 0.11101028062E+02 0.15101020681E+02 0.21059008348E+02 0.31392202800E+02 0.52871613656E+02
 0.89514012586E+02 0.14008937667E+03 0.19803193306E+03 0.25272784374E+03 0.29212964080E+03
 0.42832113808E+03 0.40839592417E+03 0.35391467858E+03 0.27837093933E+03 0.19803193306E+03
 0.12686254992E+03 0.73643775202E+02 0.40889939390E+02 0.24894099427E+02 0.17403236816E+02
 0.12528807127E+02 0.95565190424E+01 0.78981076771E+01 0.70911349146E+01 0.68555475359E+01
 0.70911349146E+01 0.78981076771E+01 0.95565190424E+01 0.12528807127E+02 0.17403236816E+02
 0.24894099427E+02 0.40889939390E+02 0.73643775202E+02 0.12686254992E+03 0.19803193306E+03
 0.27837093933E+03 0.35391467858E+03 0.40839592417E+03 0.54360255425E+03 0.51828529893E+03
 0.44925276654E+03 0.35391467858E+03 0.25272784374E+03 0.16267224394E+03 0.94215516088E+02
 0.50727078692E+02 0.28735585554E+02 0.19324755162E+02 0.13731694721E+02 0.10298653262E+02
 0.84061154330E+01 0.75026509230E+01 0.72426311448E+01 0.75026509230E+01 0.84061154330E+01
 0.10298653262E+02 0.13731694721E+02 0.19324755162E+02 0.28735585554E+02 0.50727078692E+02
 0.94215516088E+02 0.16267224394E+03 0.25272784374E+03 0.35391467858E+03 0.44925276654E+03
 0.51828529893E+03 0.62749424750E+03 0.59814204372E+03 0.51828529893E+03 0.40839592417E+03
 0.29212964080E+03 0.18862615577E+03 0.10938890129E+03 0.58204435726E+02 0.31693838785E+02
 0.20598113581E+02 0.14537716619E+02 0.10792015574E+02 0.87380889050E+01 0.77677213206E+01
 0.74906363444E+01 0.77677213206E+01 0.87380889050E+01 0.10792015574E+02 0.14537716619E+02
 0.20598113581E+02 0.31693838785E+02 0.58204435726E+02 0.10938890129E+03 0.18862615577E+03
 0.29212964080E+03 0.40839592417E+03 0.51828529893E+03 0.59814204372E+03 0.63355381501E+03
 0.60390637437E+03 0.52325935861E+03 0.41231252842E+03 0.29495819691E+03 0.19049249332E+03
 0.11048876752E+03 0.58756963266E+02 0.31920705735E+02 0.20696999324E+02 0.14604815385E+02
 0.10837855403E+02 0.87730402087E+01 0.77982701904E+01 0.75200918089E+01 0.77982701904E+01
 0.87730402087E+01 0.10837855403E+02 0.14604815385E+02 0.20696999324E+02 0.31920705735E+02
 0.58756963266E+02 0.11048876752E+03 0.19049249332E+03 0.29495819691E+03 0.41231252842E+03
 0.52325935861E+03 0.60390637437E+03 0.60390637437E+03 0.57569843739E+03 0.49890632891E+03
 0.39312336072E+03 0.28109292898E+03 0.18134929683E+03 0.10511920990E+03 0.56087997419E+02
 0.30857409824E+02 0.20258884813E+02 0.14327120605E+02 0.10668252789E+02 0.86595635081E+01
 0.77081158277E+01 0.74359008563E+01 0.77081158277E+01 0.86595635081E+01 0.10668252789E+02
 0.14327120605E+02 0.20258884813E+02 0.30857409824E+02 0.56087997419E+02 0.10511920990E+03
 0.18134929683E+03 0.28109292898E+03 0.39312336072E+03 0.49890632891E+03 0.57569843739E+03
 0.52325935861E+03 0.49890632891E+03 0.43246788227E+03 0.34063743275E+03 0.24311573770E+03
 0.15635690056E+03 0.90555375268E+02 0.48953908811E+02 0.28046877422E+02 0.19011026710E+02
 0.13538850165E+02 0.10185285525E+02 0.83336340744E+01 0.74471842834E+01 0.71915174428E+01
 0.74471842834E+01 0.83336340744E+01 0.10185285525E+02 0.13538850165E+02 0.19011026710E+02
 0.28046877422E+02 0.48953908811E+02 0.90555375268E+02 0.15635690056E+03 0.24311573770E+03
 0.34063743275E+03 0.43246788227E+03 0.49890632891E+03 0.41231252842E+03 0.39312336072E+03
 0.34063743275E+03 0.26783153685E+03 0.19040842506E+03 0.12190605743E+03 0.70842768552E+02
 0.39586440697E+02 0.24389497499E+02 0.17128208300E+02 0.12362677607E+02 0.94585418911E+01
 0.78346845951E+01 0.70420465741E+01 0.68101048701E+01 0.70420465741E+01 0.78346845951E+01
 0.94585418911E+01 0.12362677607E+02 0.17128208300E+02 0.24389497499E+02 0.39586440697E+02
 0.70842768552E+02 0.12190605743E+03 0.19040842506E+03 0.26783153685E+03 0.34063743275E+03
 0.39312336072E+03 0.29495819691E+03 0.28109292898E+03 0.24311573770E+03 0.19040842506E+03
 0.13462441331E+03 0.86043958538E+02 0.50994062426E+02 0.30562080951E+02 0.20704104961E+02
 0.14875193568E+02 0.10966638624E+02 0.85811242125E+01 0.72167713445E+01 0.65309931059E+01
 0.63259750168E+01 0.65309931059E+01 0.72167713445E+01 0.85811242125E+01 0.10966638624E+02
 0.14875193568E+02 0.20704104961E+02 0.30562080951E+02 0.50994062426E+02 0.86043958538E+02
 0.13462441331E+03 0.19040842506E+03 0.24311573770E+03 0.28109292898E+03 0.19049249332E+03
 0.18134929683E+03 0.15635690056E+03 0.12190605743E+03 0.86043958538E+02 0.55810616724E+02
 0.35095049394E+02 0.23564981217E+02 0.17135430550E+02 0.12547183163E+02 0.95205477017E+01
 0.76459346804E+01 0.65365895517E+01 0.59572838744E+01 0.57793375804E+01 0.59572838744E+01
 0.65365895517E+01 0.76459346804E+01 0.95205477017E+01 0.12547183163E+02 0.17135430550E+02
 0.23564981217E+02 0.35095049394E+02 0.55810616724E+02 0.86043958538E+02 0.12190605743E+03
 0.15635690056E+03 0.18134929683E+03 0.11048876752E+03 0.10511920990E+03 0.90555375268E+02
 0.70842768552E+02 0.50994062426E+02 0.35095049394E+02 0.24748854166E+02 0.18482854979E+02
 0.13774948217E+02 0.10394027729E+02 0.81573629882E+01 0.67278952277E+01 0.58443888601E+01
 0.53630228496E+01 0.52108378212E+01 0.53630228496E+01 0.58443888601E+01 0.67278952277E+01
 0.81573629882E+01 0.10394027729E+02 0.13774948217E+02 0.18482854979E+02 0.24748854166E+02
 0.35095049394E+02 0.50994062426E+02 0.70842768552E+02 0.90555375268E+02 0.10511920990E+03
 0.58756963266E+02 0.56087997419E+02 0.48953908811E+02 0.39586440697E+02 0.30562080951E+02
 0.23564981217E+02 0.18482854979E+02 0.14242851878E+02 0.10930406762E+02 0.85646043267E+01
 0.69545969325E+01 0.58772694701E+01 0.51799648333E+01 0.47849726142E+01 0.46569602283E+01
 0.47849726142E+01 0.51799648333E+01 0.58772694701E+01 0.69545969325E+01 0.85646043267E+01
 0.10930406762E+02 0.14242851878E+02 0.18482854979E+02 0.23564981217E+02 0.30562080951E+02
 0.39586440697E+02 0.48953908811E+02 0.56087997419E+02 0.31920705735E+02 0.30857409824E+02
 0.28046877422E+02 0.24389497499E+02 0.20704104961E+02 0.17135430550E+02 0.13774948217E+02
 0.10930406762E+02 0.87213495380E+01 0.70995871164E+01 0.59397804593E+01 0.51229133275E+01
 0.45728511813E+01 0.42524963646E+01 0.41470053294E+01 0.42524963646E+01 0.45728511813E+01
 0.51229133275E+01 0.59397804593E+01 0.70995871164E+01 0.87213495380E+01 0.10930406762E+02
 0.13774948217E+02 0.17135430550E+02 0.20704104961E+02 0.24389497499E+02 0.28046877422E+02
 0.30857409824E+02 0.20696999324E+02 0.20258884813E+02 0.19011026710E+02 0.17128208300E+02
 0.14875193568E+02 0.12547183163E+02 0.10394027729E+02 0.85646043267E+01 0.70995871164E+01
 0.59671022702E+01 0.51103464244E+01 0.44798668602E+01 0.40441287210E+01 0.37869990606E+01
 0.37018443658E+01 0.37869990606E+01 0.40441287210E+01 0.44798668602E+01 0.51103464244E+01
 0.59671022702E+01 0.70995871164E+01 0.85646043267E+01 0.10394027729E+02 0.12547183163E+02
 0.14875193568E+02 0.17128208300E+02 0.19011026710E+02 0.20258884813E+02 0.14604815385E+02
 0.14327120605E+02 0.13538850165E+02 0.12362677607E+02 0.10966638624E+02 0.95205477017E+01
 0.81573629882E+01 0.69545969325E+01 0.59397804593E+01 0.51103464244E+01 0.44532383099E+01
 0.39556513358E+01 0.36077129771E+01 0.34021388995E+01 0.33341765804E+01 0.34021388995E+01
 0.36077129771E+01 0.39556513358E+01 0.44532383099E+01 0.51103464244E+01 0.59397804593E+01
 0.69545969325E+01 0.81573629882E+01 0.95205477017E+01 0.10966638624E+02 0.12362677607E+02
 0.13538850165E+02 0.14327120605E+02 0.10837855403E+02 0.10668252789E+02 0.10185285525E+02
 0.94585418911E+01 0.85811242125E+01 0.76459346804E+01 0.67278952277E+01 0.58772694701E+01
 0.51229133275E+01 0.44798668602E+01 0.39556513358E+01 0.35530467607E+01 0.32707594308E+01
 0.31045368927E+01 0.30497851670E+01 0.31045368927E+01 0.32707594308E+01 0.35530467607E+01
 0.39556513358E+01 0.44798668602E+01 0.51229133275E+01 0.58772694701E+01 0.67278952277E+01
 0.76459346804E+01 0.85811242125E+01 0.94585418911E+01 0.10185285525E+02 0.10668252789E+02
 0.87730402087E+01 0.86595635081E+01 0.83336340744E+01 0.78346845951E+01 0.72167713445E+01
 0.65365895517E+01 0.58443888601E+01 0.51799648333E+01 0.45728511813E+01 0.40441287210E+01
 0.36077129771E+01 0.32707594308E+01 0.30342893803E+01 0.28951733810E+01 0.28493921976E+01
 0.28951733810E+01 0.30342893803E+01 0.32707594308E+01 0.36077129771E+01 0.40441287210E+01
 0.45728511813E+01 0.51799648333E+01 0.58443888601E+01 0.65365895517E+01 0.72167713445E+01
 0.78346845951E+01 0.83336340744E+01 0.86595635081E+01 0.77982701904E+01 0.77081158277E+01
 0.74471842834E+01 0.70420465741E+01 0.65309931059E+01 0.59572838744E+01 0.53630228496E+01
 0.47849726142E+01 0.42524963646E+01 0.37869990606E+01 0.34021388995E+01 0.31045368927E+01
 0.28951733810E+01 0.27716410499E+01 0.27309038286E+01 0.27716410499E+01 0.28951733810E+01
 0.31045368927E+01 0.34021388995E+01 0.37869990606E+01 0.42524963646E+01 0.47849726142E+01
 0.53630228496E+01 0.59572838744E+01 0.65309931059E+01 0.70420465741E+01 0.74471842834E+01
 0.77081158277E+01 0.75200918089E+01 0.74359008563E+01 0.71915174428E+01 0.68101048701E+01
 0.63259750168E+01 0.57793375804E+01 0.52108378212E+01 0.46569602283E+01 0.41470053294E+01
 0.37018443658E+01 0.33341765804E+01 0.30497851670E+01 0.28493921976E+01 0.27309038286E+01
 0.26917732077E+01 0.27309038286E+01 0.28493921976E+01 0.30497851670E+01 0.33341765804E+01
 0.37018443658E+01 0.41470053294E+01 0.46569602283E+01 0.52108378212E+01 0.57793375804E+01
 0.63259750168E+01 0.68101048701E+01 0.71915174428E+01 0.74359008563E+01 0.77982701904E+01
 0.77081158277E+01 0.74471842834E+01 0.70420465741E+01 0.65309931059E+01 0.59572838744E+01
 0.53630228496E+01 0.47849726142E+01 0.42524963646E+01 0.37869990606E+01 0.34021388995E+01
 0.31045368927E+01 0.28951733810E+01 0.27716410499E+01 0.27309038286E+01 0.27716410499E+01
 0.28951733810E+01 0.31045368927E+01 0.34021388995E+01 0.37869990606E+01 0.42524963646E+01
 0.47849726142E+01 0.53630228496E+01 0.59572838744E+01 0.65309931059E+01 0.70420465741E+01
 0.74471842834E+01 0.77081158277E+01 0.87730402087E+01 0.86595635081E+01 0.83336340744E+01
 0.78346845951E+01 0.72167713445E+01 0.65365895517E+01 0.58443888601E+01 0.51799648333E+01
 0.45728511813E+01 0.40441287210E+01 0.36077129771E+01 0.32707594308E+01 0.30342893803E+01
 0.28951733810E+01 0.28493921976E+01 0.28951733810E+01 0.30342893803E+01 0.32707594308E+01
 0.36077129771E+01 0.40441287210E+01 0.45728511813E+01 0.51799648333E+01 0.58443888601E+01
 0.65365895517E+01 0.72167713445E+01 0.78346845951E+01 0.83336340744E+01 0.86595635081E+01
 0.10837855403E+02 0.10668252789E+02 0.10185285525E+02 0.94585418911E+01 0.85811242125E+01
 0.76459346804E+01 0.67278952277E+01 0.58772694701E+01 0.51229133275E+01 0.44798668602E+01
 0.39556513358E+01 0.35530467607E+01 0.32707594308E+01 0.31045368927E+01 0.30497851670E+01
 0.31045368927E+01 0.32707594308E+01 0.35530467607E+01 0.39556513358E+01 0.44798668602E+01
 0.51229133275E+01 0.58772694701E+01 0.67278952277E+01 0.76459346804E+01 0.85811242125E+01
 0.94585418911E+01 0.10185285525E+02 0.10668252789E+02 0.14604815385E+02 0.14327120605E+02
 0.13538850165E+02 0.12362677607E+02 0.10966638624E+02 0.95205477017E+01 0.81573629882E+01
 0.69545969325E+01 0.59397804593E+01 0.51103464244E+01 0.44532383099E+01 0.39556513358E+01
 0.36077129771E+01 0.34021388995E+01 0.33341765804E+01 0.34021388995E+01 0.36077129771E+01
 0.39556513358E+01 0.44532383099E+01 0.51103464244E+01 0.59397804593E+01 0.69545969325E+01
 0.81573629882E+01 0.95205477017E+01 0.10966638624E+02 0.12362677607E+02 0.13538850165E+02
 0.14327120605E+02 0.20696999324E+02 0.20258884813E+02 0.19011026710E+02 0.17128208300E+02
 0.14875193568E+02 0.12547183163E+02 0.10394027729E+02 0.85646043267E+01 0.70995871164E+01
 0.59671022702E+01 0.51103464244E+01 0.44798668602E+01 0.40441287210E+01 0.37869990606E+01
 0.37018443658E+01 0.37869990606E+01 0.40441287210E+01 0.44798668602E+01 0.51103464244E+01
 0.59671022702E+01 0.70995871164E+01 0.85646043267E+01 0.10394027729E+02 0.12547183163E+02
 0.14875193568E+02 0.17128208300E+02 0.19011026710E+02 0.20258884813E+02 0.31920705735E+02
 0.30857409824E+02 0.28046877422E+02 0.24389497499E+02 0.20704104961E+02 0.17135430550E+02
 0.13774948217E+02 0.10930406762E+02 0.87213495380E+01 0.70995871164E+01 0.59397804593E+01
 0.51229133275E+01 0.45728511813E+01 0.42524963646E+01 0.41470053294E+01 0.42524963646E+01
 0.45728511813E+01 0.51229133275E+01 0.59397804593E+01 0.70995871164E+01 0.87213495380E+01
 0.10930406762E+02 0.13774948217E+02 0.17135430550E+02 0.20704104961E+02 0.24389497499E+02
 0.28046877422E+02 0.30857409824E+02 0.58756963266E+02 0.56087997419E+02 0.48953908811E+02
 0.39586440697E+02 0.30562080951E+02 0.23564981217E+02 0.18482854979E+02 0.14242851878E+02
 0.10930406762E+02 0.85646043267E+01 0.69545969325E+01 0.58772694701E+01 0.51799648333E+01
 0.47849726142E+01 0.46569602283E+01 0.47849726142E+01 0.51799648333E+01 0.58772694701E+01
 0.69545969325E+01 0.85646043267E+01 0.10930406762E+02 0.14242851878E+02 0.18482854979E+02
 0.23564981217E+02 0.30562080951E+02 0.39586440697E+02 0.48953908811E+02 0.56087997419E+02
 0.11048876752E+03 0.10511920990E+03 0.90555375268E+02 0.70842768552E+02 0.50994062426E+02
 0.35095049394E+02 0.24748854166E+02 0.18482854979E+02 0.13774948217E+02 0.10394027729E+02
 0.81573629882E+01 0.67278952277E+01 0.58443888601E+01 0.53630228496E+01 0.52108378212E+01
 0.53630228496E+01 0.58443888601E+01 0.67278952277E+01 0.81573629882E+01 0.10394027729E+02
 0.13774948217E+02 0.18482854979E+02 0.24748854166E+02 0.35095049394E+02 0.50994062426E+02
 0.70842768552E+02 0.90555375268E+02 0.10511920990E+03 0.19049249332E+03 0.18134929683E+03
 0.15635690056E+03 0.12190605743E+03 0.86043958538E+02 0.55810616724E+02 0.35095049394E+02
 0.23564981217E+02 0.17135430550E+02 0.12547183163E+02 0.95205477017E+01 0.76459346804E+01
 0.65365895517E+01 0.59572838744E+01 0.57793375804E+01 0.59572838744E+01 0.65365895517E+01
 0.76459346804E+01 0.95205477017E+01 0.12547183163E+02 0.17135430550E+02 0.23564981217E+02
 0.35095049394E+02 0.55810616724E+02 0.86043958538E+02 0.12190605743E+03 0.15635690056E+03
 0.18134929683E+03 0.29495819691E+03 0.28109292898E+03 0.24311573770E+03 0.19040842506E+03
 0.13462441331E+03 0.86043958538E+02 0.50994062426E+02 0.30562080951E+02 0.20704104961E+02
 0.14875193568E+02 0.10966638624E+02 0.85811242125E+01 0.72167713445E+01 0.65309931059E+01
 0.63259750168E+01 0.65309931059E+01 0.72167713445E+01 0.85811242125E+01 0.10966638624E+02
 0.14875193568E+02 0.20704104961E+02 0.30562080951E+02 0.50994062426E+02 0.86043958538E+02
 0.13462441331E+03 0.19040842506E+03 0.24311573770E+03 0.28109292898E+03 0.41231252842E+03
 0.39312336072E+03 0.34063743275E+03 0.26783153685E+03 0.19040842506E+03 0.12190605743E+03
 0.70842768552E+02 0.39586440697E+02 0.24389497499E+02 0.17128208300E+02 0.12362677607E+02
 0.94585418911E+01 0.78346845951E+01 0.70420465741E+01 0.68101048701E+01 0.70420465741E+01
 0.78346845951E+01 0.94585418911E+01 0.12362677607E+02 0.17128208300E+02 0.24389497499E+02
 0.39586440697E+02 0.70842768552E+02 0.12190605743E+03 0.19040842506E+03 0.26783153685E+03
 0.34063743275E+03 0.39312336072E+03 0.52325935861E+03 0.49890632891E+03 0.43246788227E+03
 0.34063743275E+03 0.24311573770E+03 0.15635690056E+03 0.90555375268E+02 0.48953908811E+02
 0.28046877422E+02 0.19011026710E+02 0.13538850165E+02 0.10185285525E+02 0.83336340744E+01
 0.74471842834E+01 0.71915174428E+01 0.74471842834E+01 0.83336340744E+01 0.10185285525E+02
 0.13538850165E+02 0.19011026710E+02 0.28046877422E+02 0.48953908811E+02 0.90555375268E+02
 0.15635690056E+03 0.24311573770E+03 0.34063743275E+03 0.43246788227E+03 0.49890632891E+03
 0.60390637437E+03 0.57569843739E+03 0.49890632891E+03 0.39312336072E+03 0.28109292898E+03
 0.18134929683E+03 0.10511920990E+03 0.56087997419E+02 0.30857409824E+02 0.20258884813E+02
 0.14327120605E+02 0.10668252789E+02 0.86595635081E+01 0.77081158277E+01 0.74359008563E+01
 0.77081158277E+01 0.86595635081E+01 0.10668252789E+02 0.14327120605E+02 0.20258884813E+02
 0.30857409824E+02 0.56087997419E+02 0.10511920990E+03 0.18134929683E+03 0.28109292898E+03
 0.39312336072E+03 0.49890632891E+03 0.57569843739E+03 0.56481978743E+03 0.53849114998E+03
 0.46674044552E+03 0.36773514359E+03 0.26273016152E+03 0.16925562672E+03 0.98056152352E+02
 0.52620594217E+02 0.29504028166E+02 0.19694570914E+02 0.13982922234E+02 0.10472073124E+02
 0.85403062861E+01 0.76210984461E+01 0.73571970604E+01 0.76210984461E+01 0.85403062861E+01
 0.10472073124E+02 0.13982922234E+02 0.19694570914E+02 0.29504028166E+02 0.52620594217E+02
 0.98056152352E+02 0.16925562672E+03 0.26273016152E+03 0.36773514359E+03 0.46674044552E+03
 0.53849114998E+03 0.53849114998E+03 0.51341693106E+03 0.44503755655E+03 0.35058129990E+03
 0.25031530360E+03 0.16108983565E+03 0.93306139824E+02 0.50301397020E+02 0.28592480767E+02
 0.19282737772E+02 0.13723246358E+02 0.10313077667E+02 0.84330224308E+01 0.75351969093E+01
 0.72767311605E+01 0.75351969093E+01 0.84330224308E+01 0.10313077667E+02 0.13723246358E+02
 0.19282737772E+02 0.28592480767E+02 0.50301397020E+02 0.93306139824E+02 0.16108983565E+03
 0.25031530360E+03 0.35058129990E+03 0.44503755655E+03 0.51341693106E+03 0.46674044552E+03
 0.44503755655E+03 0.38574614446E+03 0.30362575600E+03 0.21631537420E+03 0.13879694691E+03