   2   2   0   0
  0.2753908E+02  0.3298410E-09  0.3298410E-09  0.5062560E-09  0.5000000E-15
  1.000000000000000E-004
  CAR 
 In                                      
     45.98274014    -10.39235643  301      6.98715400      1.00000000
    -10.392  0.0000E+00  0.0000E+00
    -10.204  0.0000E+00  0.0000E+00
    -10.017  0.0000E+00  0.0000E+00
     -9.829  0.0000E+00  0.0000E+00
     -9.641  0.0000E+00  0.0000E+00
     -9.453  0.0000E+00  0.0000E+00
     -9.265  0.0000E+00  0.0000E+00
     -9.077  0.0000E+00  0.0000E+00
     -8.889  0.0000E+00  0.0000E+00
     -8.701  0.0000E+00  0.0000E+00
     -8.513  0.0000E+00  0.0000E+00
     -8.325  0.0000E+00  0.0000E+00
     -8.137  0.0000E+00  0.0000E+00
     -7.949  0.1875E-04  0.3524E-05
     -7.762  0.1466E+01  0.2755E+00
     -7.574  0.3704E+02  0.7236E+01
     -7.386  0.4567E+02  0.1582E+02
     -7.198  0.2221E+02  0.1999E+02
     -7.010  0.4119E-01  0.2000E+02
     -6.822  0.0000E+00  0.2000E+02
     -6.634  0.0000E+00  0.2000E+02
     -6.446  0.0000E+00  0.2000E+02
     -6.258  0.0000E+00  0.2000E+02
     -6.070  0.0000E+00  0.2000E+02
     -5.882  0.0000E+00  0.2000E+02
     -5.694  0.0000E+00  0.2000E+02
     -5.507  0.0000E+00  0.2000E+02
     -5.319  0.0000E+00  0.2000E+02
     -5.131  0.0000E+00  0.2000E+02
     -4.943  0.0000E+00  0.2000E+02
     -4.755  0.0000E+00  0.2000E+02
     -4.567  0.0000E+00  0.2000E+02
     -4.379  0.0000E+00  0.2000E+02
     -4.191  0.0000E+00  0.2000E+02
     -4.003  0.0000E+00  0.2000E+02
     -3.815  0.0000E+00  0.2000E+02
     -3.627  0.0000E+00  0.2000E+02
     -3.439  0.0000E+00  0.2000E+02
     -3.252  0.0000E+00  0.2000E+02
     -3.064  0.0000E+00  0.2000E+02
     -2.876  0.0000E+00  0.2000E+02
     -2.688  0.0000E+00  0.2000E+02
     -2.500  0.5176E-14  0.2000E+02
     -2.312  0.5825E-03  0.2000E+02
     -2.124  0.5081E-01  0.2001E+02
     -1.936  0.1377E+00  0.2004E+02
     -1.748  0.2379E+00  0.2008E+02
     -1.560  0.3328E+00  0.2014E+02
     -1.372  0.1270E+00  0.2017E+02
     -1.184  0.3065E+00  0.2022E+02
     -0.997  0.4640E+00  0.2031E+02
     -0.809  0.5636E+00  0.2042E+02
     -0.621  0.3507E+00  0.2048E+02
     -0.433  0.1256E+00  0.2051E+02
     -0.245  0.4632E+00  0.2059E+02
     -0.057  0.6334E+00  0.2071E+02
      0.131  0.4356E+00  0.2079E+02
      0.319  0.6786E+00  0.2092E+02
      0.507  0.4850E+00  0.2101E+02
      0.695  0.6167E+00  0.2113E+02
      0.883  0.5453E+00  0.2123E+02
      1.071  0.5636E+00  0.2134E+02
      1.258  0.6259E+00  0.2146E+02
      1.446  0.4079E+00  0.2153E+02
      1.634  0.5776E+00  0.2164E+02
      1.822  0.1061E+01  0.2184E+02
      2.010  0.5370E+00  0.2194E+02
      2.198  0.6681E+00  0.2207E+02
      2.386  0.8568E+00  0.2223E+02
      2.574  0.1467E+01  0.2250E+02
      2.762  0.3370E+00  0.2257E+02
      2.950  0.7859E+00  0.2271E+02
      3.138  0.3985E+00  0.2279E+02
      3.326  0.8631E+00  0.2295E+02
      3.514  0.9104E+00  0.2312E+02
      3.701  0.1202E+01  0.2335E+02
      3.889  0.3332E+00  0.2341E+02
      4.077  0.8218E+00  0.2357E+02
      4.265  0.5382E+00  0.2367E+02
      4.453  0.1050E+01  0.2386E+02
      4.641  0.8150E+00  0.2402E+02
      4.829  0.4632E+00  0.2410E+02
      5.017  0.6395E+00  0.2422E+02
      5.205  0.4495E+00  0.2431E+02
      5.393  0.1067E+01  0.2451E+02
      5.581  0.1151E+01  0.2473E+02
      5.769  0.8881E+00  0.2489E+02
      5.956  0.6369E+00  0.2501E+02
      6.144  0.7339E+00  0.2515E+02
      6.332  0.1098E+01  0.2536E+02
      6.520  0.1042E+01  0.2555E+02
      6.708  0.8081E+00  0.2570E+02
      6.896  0.1078E+01  0.2591E+02
      7.084  0.9441E+00  0.2608E+02
      7.272  0.1271E+01  0.2632E+02
      7.460  0.8843E+00  0.2649E+02
      7.648  0.1191E+01  0.2671E+02
      7.836  0.1298E+01  0.2696E+02
      8.024  0.5153E+00  0.2705E+02
      8.211  0.7666E+00  0.2720E+02
      8.399  0.1709E+01  0.2752E+02
      8.587  0.8750E+00  0.2768E+02
      8.775  0.5880E+00  0.2779E+02
      8.963  0.1428E+01  0.2806E+02
      9.151  0.1517E+01  0.2835E+02
      9.339  0.4810E+00  0.2844E+02
      9.527  0.1122E+01  0.2865E+02
      9.715  0.7916E+00  0.2880E+02
      9.903  0.9083E+00  0.2897E+02
     10.091  0.2356E+01  0.2941E+02
     10.279  0.1256E+01  0.2965E+02
     10.466  0.9761E+00  0.2983E+02
     10.654  0.1315E+01  0.3008E+02
     10.842  0.1649E+01  0.3039E+02
     11.030  0.1979E+01  0.3076E+02
     11.218  0.9206E+00  0.3093E+02
     11.406  0.8181E+00  0.3109E+02
     11.594  0.1269E+01  0.3132E+02
     11.782  0.1583E+01  0.3162E+02
     11.970  0.2065E+01  0.3201E+02
     12.158  0.1460E+01  0.3228E+02
     12.346  0.8372E+00  0.3244E+02
     12.534  0.5173E+00  0.3254E+02
     12.721  0.1465E+01  0.3281E+02
     12.909  0.1064E+01  0.3301E+02
     13.097  0.1296E+01  0.3326E+02
     13.285  0.1162E+01  0.3348E+02
     13.473  0.1261E+01  0.3371E+02
     13.661  0.1250E+01  0.3395E+02
     13.849  0.8584E+00  0.3411E+02
     14.037  0.8934E+00  0.3428E+02
     14.225  0.1472E+01  0.3455E+02
     14.413  0.8488E+00  0.3471E+02
     14.601  0.7434E+00  0.3485E+02
     14.789  0.1602E+01  0.3515E+02
     14.976  0.1412E+01  0.3542E+02
     15.164  0.1142E+01  0.3563E+02
     15.352  0.1699E+01  0.3595E+02
     15.540  0.1344E+01  0.3620E+02
     15.728  0.1818E+01  0.3655E+02
     15.916  0.1325E+01  0.3680E+02
     16.104  0.6995E+00  0.3693E+02
     16.292  0.1789E+01  0.3726E+02
     16.480  0.1495E+01  0.3754E+02
     16.668  0.1581E+01  0.3784E+02
     16.856  0.1002E+01  0.3803E+02
     17.044  0.2348E+01  0.3847E+02
     17.231  0.5884E+00  0.3858E+02
     17.419  0.1119E+01  0.3879E+02
     17.607  0.1939E+01  0.3916E+02
     17.795  0.1261E+01  0.3939E+02
     17.983  0.1509E+01  0.3968E+02
     18.171  0.2542E+01  0.4015E+02
     18.359  0.2508E+01  0.4063E+02
     18.547  0.1643E+01  0.4093E+02
     18.735  0.1396E+01  0.4120E+02
     18.923  0.1180E+01  0.4142E+02
     19.111  0.1612E+01  0.4172E+02
     19.299  0.1066E+01  0.4192E+02
     19.486  0.1040E+01  0.4212E+02
     19.674  0.4935E+00  0.4221E+02
     19.862  0.6615E+00  0.4233E+02
     20.050  0.1200E+01  0.4256E+02
     20.238  0.1117E+01  0.4277E+02
     20.426  0.1601E+01  0.4307E+02
     20.614  0.1617E+01  0.4337E+02
     20.802  0.2359E+01  0.4382E+02
     20.990  0.1784E+01  0.4415E+02
     21.178  0.1902E+01  0.4451E+02
     21.366  0.1789E+01  0.4485E+02
     21.554  0.2464E+01  0.4531E+02
     21.741  0.1922E+01  0.4567E+02
     21.929  0.1936E+01  0.4603E+02
     22.117  0.1769E+01  0.4637E+02
     22.305  0.1619E+01  0.4667E+02
     22.493  0.1845E+01  0.4702E+02
     22.681  0.1168E+01  0.4724E+02
     22.869  0.1933E+01  0.4760E+02
     23.057  0.2897E+01  0.4814E+02
     23.245  0.2214E+01  0.4856E+02
     23.433  0.2353E+01  0.4900E+02
     23.621  0.1659E+01  0.4931E+02
     23.809  0.1763E+01  0.4965E+02
     23.996  0.2244E+01  0.5007E+02
     24.184  0.2234E+01  0.5049E+02
     24.372  0.1567E+01  0.5078E+02
     24.560  0.1566E+01  0.5108E+02
     24.748  0.2653E+01  0.5157E+02
     24.936  0.1637E+01  0.5188E+02
     25.124  0.1813E+01  0.5222E+02
     25.312  0.2335E+01  0.5266E+02
     25.500  0.2279E+01  0.5309E+02
     25.688  0.2142E+01  0.5349E+02
     25.876  0.2896E+01  0.5404E+02
     26.064  0.2394E+01  0.5449E+02
     26.251  0.2740E+01  0.5500E+02
     26.439  0.2580E+01  0.5549E+02
     26.627  0.1422E+01  0.5575E+02
     26.815  0.3014E+01  0.5632E+02
     27.003  0.1858E+01  0.5667E+02
     27.191  0.2260E+01  0.5709E+02
     27.379  0.2383E+01  0.5754E+02
     27.567  0.2060E+01  0.5793E+02
     27.755  0.3133E+01  0.5852E+02
     27.943  0.2537E+01  0.5899E+02
     28.131  0.2094E+01  0.5939E+02
     28.319  0.1367E+01  0.5964E+02
     28.506  0.1790E+01  0.5998E+02
     28.694  0.2586E+01  0.6047E+02
     28.882  0.3462E+01  0.6112E+02
     29.070  0.2310E+01  0.6155E+02
     29.258  0.2378E+01  0.6200E+02
     29.446  0.1598E+01  0.6230E+02
     29.634  0.2023E+01  0.6268E+02
     29.822  0.1303E+01  0.6292E+02
     30.010  0.1444E+01  0.6320E+02
     30.198  0.1418E+01  0.6346E+02
     30.386  0.2402E+01  0.6391E+02
     30.574  0.3746E+01  0.6462E+02
     30.761  0.1758E+01  0.6495E+02
     30.949  0.3013E+01  0.6551E+02
     31.137  0.2304E+01  0.6595E+02
     31.325  0.2333E+01  0.6638E+02
     31.513  0.1305E+01  0.6663E+02
     31.701  0.1328E+01  0.6688E+02
     31.889  0.2857E+01  0.6742E+02
     32.077  0.1931E+01  0.6778E+02
     32.265  0.2515E+01  0.6825E+02
     32.453  0.2461E+01  0.6871E+02
     32.641  0.1901E+01  0.6907E+02
     32.829  0.1556E+01  0.6936E+02
     33.016  0.3136E+01  0.6995E+02
     33.204  0.3065E+01  0.7053E+02
     33.392  0.1443E+01  0.7080E+02
     33.580  0.2036E+01  0.7118E+02
     33.768  0.2489E+01  0.7165E+02
     33.956  0.1763E+01  0.7198E+02
     34.144  0.3027E+01  0.7255E+02
     34.332  0.2463E+01  0.7301E+02
     34.520  0.2673E+01  0.7352E+02
     34.708  0.3187E+01  0.7411E+02
     34.896  0.2105E+01  0.7451E+02
     35.084  0.2618E+01  0.7500E+02
     35.271  0.2930E+01  0.7555E+02
     35.459  0.4270E+01  0.7636E+02
     35.647  0.2978E+01  0.7691E+02
     35.835  0.2679E+01  0.7742E+02
     36.023  0.3277E+01  0.7803E+02
     36.211  0.1923E+01  0.7840E+02
     36.399  0.2897E+01  0.7894E+02
     36.587  0.1411E+01  0.7921E+02
     36.775  0.2069E+01  0.7959E+02
     36.963  0.2488E+01  0.8006E+02
     37.151  0.3658E+01  0.8075E+02
     37.339  0.1652E+01  0.8106E+02
     37.526  0.2100E+01  0.8145E+02
     37.714  0.2311E+01  0.8189E+02
     37.902  0.3292E+01  0.8251E+02
     38.090  0.2726E+01  0.8302E+02
     38.278  0.3273E+01  0.8363E+02
     38.466  0.2919E+01  0.8418E+02
     38.654  0.2018E+01  0.8456E+02
     38.842  0.2701E+01  0.8507E+02
     39.030  0.2309E+01  0.8550E+02
     39.218  0.3072E+01  0.8608E+02
     39.406  0.2025E+01  0.8646E+02
     39.594  0.2719E+01  0.8697E+02
     39.781  0.2963E+01  0.8753E+02
     39.969  0.2333E+01  0.8797E+02
     40.157  0.9261E+00  0.8814E+02
     40.345  0.2225E+01  0.8856E+02
     40.533  0.2048E+01  0.8894E+02
     40.721  0.2649E+01  0.8944E+02
     40.909  0.3892E+01  0.9017E+02
     41.097  0.1981E+01  0.9055E+02
     41.285  0.3902E+01  0.9128E+02
     41.473  0.3977E+01  0.9203E+02
     41.661  0.3998E+01  0.9278E+02
     41.849  0.3907E+01  0.9351E+02
     42.036  0.3372E+01  0.9415E+02
     42.224  0.2061E+01  0.9453E+02
     42.412  0.2355E+01  0.9498E+02
     42.600  0.1374E+01  0.9523E+02
     42.788  0.1637E+01  0.9554E+02
     42.976  0.9861E+00  0.9573E+02
     43.164  0.6729E+00  0.9585E+02
     43.352  0.4824E+00  0.9594E+02
     43.540  0.3013E+00  0.9600E+02
     43.728  0.6100E-04  0.9600E+02
     43.916  0.0000E+00  0.9600E+02
     44.104  0.0000E+00  0.9600E+02
     44.291  0.0000E+00  0.9600E+02
     44.479  0.0000E+00  0.9600E+02
     44.667  0.0000E+00  0.9600E+02
     44.855  0.0000E+00  0.9600E+02
     45.043  0.0000E+00  0.9600E+02
     45.231  0.0000E+00  0.9600E+02
     45.419  0.0000E+00  0.9600E+02
     45.607  0.0000E+00  0.9600E+02
     45.795  0.0000E+00  0.9600E+02
     45.983  0.0000E+00  0.9600E+02
