    2    2    1    1
  0.2753908E+02  0.3298410E-09  0.3298410E-09  0.5062560E-09  0.5000000E-15
  1.000000000000000E-004
  CAR 
 In                                      
     26     75     48
 
  0.0000000E+00  0.0000000E+00  0.0000000E+00  0.1953125E-02
      1         -7.829852   1.000000
      2         -7.717734   1.000000
      3         -7.684299   1.000000
      4         -7.580039   1.000000
      5         -7.580039   1.000000
      6         -7.522414   1.000000
      7         -7.417972   1.000000
      8         -7.332043   1.000000
      9         -7.308192   1.000000
     10         -7.308192   1.000000
     11         -2.244371   1.000000
     12          3.879379   1.000000
     13          4.424100   1.000000
     14         11.627445   0.000000
     15         11.627445   0.000000
     16         14.939967   0.000000
     17         14.997229   0.000000
     18         17.036346   0.000000
     19         17.036346   0.000000
     20         17.190271   0.000000
     21         18.437376   0.000000
     22         20.473079   0.000000
     23         20.649483   0.000000
     24         20.649483   0.000000
     25         21.692513   0.000000
     26         22.450823   0.000000
     27         24.877644   0.000000
     28         25.392030   0.000000
     29         25.392030   0.000000
     30         28.430371   0.000000
     31         29.101135   0.000000
     32         30.386906   0.000000
     33         31.003853   0.000000
     34         31.003853   0.000000
     35         31.123916   0.000000
     36         32.833627   0.000000
     37         32.915948   0.000000
     38         32.915948   0.000000
     39         33.722160   0.000000
     40         33.722160   0.000000
     41         34.784540   0.000000
     42         35.767203   0.000000
     43         36.629024   0.000000
     44         38.059022   0.000000
     45         38.096432   0.000000
     46         38.096432   0.000000
     47         40.749365   0.000000
     48         42.062982   0.000000
 
  0.1250000E+00 -0.2088123E-33  0.0000000E+00  0.7812500E-02
      1         -7.795919   1.000000
      2         -7.690265   1.000000
      3         -7.658046   1.000000
      4         -7.590255   1.000000
      5         -7.568052   1.000000
      6         -7.511106   1.000000
      7         -7.430093   1.000000
      8         -7.351285   1.000000
      9         -7.342833   1.000000
     10         -7.316816   1.000000
     11         -2.013077   1.000000
     12          4.031890   1.000000
     13          4.701319   1.000000
     14          9.562288   0.000000
     15         11.896453   0.000000
     16         15.094319   0.000000
     17         15.114377   0.000000
     18         15.602534   0.000000
     19         17.243524   0.000000
     20         17.417954   0.000000
     21         18.317359   0.000000
     22         20.782515   0.000000
     23         21.243552   0.000000
     24         21.913533   0.000000
     25         22.992299   0.000000
     26         23.239604   0.000000
     27         23.700662   0.000000
     28         24.297460   0.000000
     29         25.537571   0.000000
     30         27.897710   0.000000
     31         29.148838   0.000000
     32         29.592807   0.000000
     33         29.617459   0.000000
     34         30.426631   0.000000
     35         31.621630   0.000000
     36         32.218637   0.000000
     37         32.385806   0.000000
     38         32.921345   0.000000
     39         35.356970   0.000000
     40         35.702371   0.000000
     41         36.032963   0.000000
     42         36.358327   0.000000
     43         37.532596   0.000000
     44         37.953442   0.000000
     45         38.165334   0.000000
     46         40.521916   0.000000
     47         41.073836   0.000000
     48         41.231680   0.000000
 
  0.2500000E+00 -0.4176247E-33  0.0000000E+00  0.7812500E-02
      1         -7.739596   1.000000
      2         -7.624308   1.000000
      3         -7.611152   1.000000
      4         -7.592686   1.000000
      5         -7.534913   1.000000
      6         -7.461083   1.000000
      7         -7.458305   1.000000
      8         -7.429277   1.000000
      9         -7.399663   1.000000
     10         -7.342634   1.000000
     11         -1.310762   1.000000
     12          4.349175   1.000000
     13          5.511114   1.000000
     14          6.982883   0.548079
     15         12.269172   0.000000
     16         12.681719   0.000000
     17         13.006214   0.000000
     18         15.562088   0.000000
     19         17.622020   0.000000
     20         19.075120   0.000000
     21         20.692996   0.000000
     22         21.188984   0.000000
     23         21.301338   0.000000
     24         21.660493   0.000000
     25         22.562641   0.000000
     26         22.723408   0.000000
     27         25.282576   0.000000
     28         25.983407   0.000000
     29         26.511439   0.000000
     30         26.559527   0.000000
     31         27.161380   0.000000
     32         27.407460   0.000000
     33         28.079610   0.000000
     34         29.701650   0.000000
     35         30.563922   0.000000
     36         33.564179   0.000000
     37         33.608102   0.000000
     38         35.424819   0.000000
     39         35.603169   0.000000
     40         37.965494   0.000000
     41         38.594891   0.000000
     42         38.949297   0.000000
     43         39.016219   0.000000
     44         39.091748   0.000000
     45         39.610388   0.000000
     46         39.975443   0.000000
     47         40.288588   0.000000
     48         40.741583   0.000000
 
  0.3750000E+00 -0.1014396E-32  0.0000000E+00  0.7812500E-02
      1         -7.693164   1.000000
      2         -7.627443   1.000000
      3         -7.619533   1.000000
      4         -7.524658   1.000000
      5         -7.487166   1.000000
      6         -7.482288   1.000000
      7         -7.464488   1.000000
      8         -7.451482   1.000000
      9         -7.395294   1.000000
     10         -7.383154   1.000000
     11         -0.127287   1.000000
     12          3.439650   1.000000
     13          6.377819   1.000000
     14          6.801511   1.000000
     15          9.738413   0.000000
     16         10.600153   0.000000
     17         13.920129   0.000000
     18         16.338023   0.000000
     19         17.069649   0.000000
     20         18.983396   0.000000
     21         20.356235   0.000000
     22         21.257614   0.000000
     23         21.889924   0.000000
     24         23.072875   0.000000
     25         24.049579   0.000000
     26         24.120457   0.000000
     27         24.278548   0.000000
     28         24.733359   0.000000
     29         25.466193   0.000000
     30         25.569507   0.000000
     31         25.886043   0.000000
     32         28.087288   0.000000
     33         28.119384   0.000000
     34         30.469604   0.000000
     35         31.699239   0.000000
     36         34.815733   0.000000
     37         35.353421   0.000000
     38         36.153792   0.000000
     39         36.669702   0.000000
     40         38.432961   0.000000
     41         38.543640   0.000000
     42         39.365453   0.000000
     43         39.816183   0.000000
     44         40.091721   0.000000
     45         40.265985   0.000000
     46         40.765691   0.000000
     47         41.889123   0.000000
     48         41.991308   0.000000
 
  0.5000000E+00 -0.8352494E-33  0.0000000E+00  0.3906250E-02
      1         -7.653862   1.000000
      2         -7.653862   1.000000
      3         -7.592929   1.000000
      4         -7.592929   1.000000
      5         -7.482399   1.000000
      6         -7.482399   1.000000
      7         -7.433545   1.000000
      8         -7.433545   1.000000
      9         -7.387285   1.000000
     10         -7.387285   1.000000
     11          1.513583   1.000000
     12          1.513583   1.000000
     13          7.708707   0.000000
     14          7.708707   0.000000
     15          8.514784   0.000000
     16          8.514784   0.000000
     17         15.492805   0.000000
     18         15.492805   0.000000
     19         17.475345   0.000000
     20         17.475345   0.000000
     21         22.056555   0.000000
     22         22.056555   0.000000
     23         22.634498   0.000000
     24         22.634498   0.000000
     25         22.912399   0.000000
     26         22.912399   0.000000
     27         24.081909   0.000000
     28         24.081909   0.000000
     29         25.875171   0.000000
     30         25.875171   0.000000
     31         26.746024   0.000000
     32         26.746024   0.000000
     33         29.892183   0.000000
     34         29.892183   0.000000
     35         34.363409   0.000000
     36         34.363409   0.000000
     37         36.400203   0.000000
     38         36.400203   0.000000
     39         37.477313   0.000000
     40         37.477313   0.000000
     41         38.840130   0.000000
     42         38.840130   0.000000
     43         39.534251   0.000000
     44         39.534251   0.000000
     45         39.773367   0.000000
     46         39.773367   0.000000
     47         41.796771   0.000000
     48         41.796771   0.000000
 
  0.1250000E+00  0.1250000E+00  0.0000000E+00  0.7812500E-02
      1         -7.754080   1.000000
      2         -7.673625   1.000000
      3         -7.625037   1.000000
      4         -7.610633   1.000000
      5         -7.547612   1.000000
      6         -7.510159   1.000000
      7         -7.439718   1.000000
      8         -7.388427   1.000000
      9         -7.369983   1.000000
     10         -7.312176   1.000000
     11         -1.781221   1.000000
     12          4.186724   1.000000
     13          4.973896   1.000000
     14          9.680672   0.000000
     15          9.928204   0.000000
     16         15.001093   0.000000
     17         15.239075   0.000000
     18         15.624832   0.000000
     19         16.894954   0.000000
     20         17.561571   0.000000
     21         17.599757   0.000000
     22         20.586836   0.000000
     23         22.154713   0.000000
     24         23.015614   0.000000
     25         23.028837   0.000000
     26         23.287279   0.000000
     27         24.623659   0.000000
     28         25.654727   0.000000
     29         25.838140   0.000000
     30         25.980801   0.000000
     31         26.844145   0.000000
     32         29.428699   0.000000
     33         30.539200   0.000000
     34         31.097862   0.000000
     35         31.733855   0.000000
     36         31.969481   0.000000
     37         32.477498   0.000000
     38         34.276360   0.000000
     39         34.532093   0.000000
     40         34.581574   0.000000
     41         35.398471   0.000000
     42         38.426011   0.000000
     43         38.909468   0.000000
     44         39.162170   0.000000
     45         39.407715   0.000000
     46         40.025923   0.000000
     47         40.120128   0.000000
     48         41.986218   0.000000
 
  0.2500000E+00  0.1250000E+00  0.0000000E+00  0.1562500E-01
      1         -7.690052   1.000000
      2         -7.638955   1.000000
      3         -7.593030   1.000000
      4         -7.581790   1.000000
      5         -7.509271   1.000000
      6         -7.500693   1.000000
      7         -7.476951   1.000000
      8         -7.436795   1.000000
      9         -7.411221   1.000000
     10         -7.327943   1.000000
     11         -1.078341   1.000000
     12          4.519750   1.000000
     13          5.771013   1.000000
     14          7.191336   0.000000
     15         10.535188   0.000000
     16         12.430601   0.000000
     17         13.116343   0.000000
     18         15.752550   0.000000
     19         17.065860   0.000000
     20         18.047273   0.000000
     21         18.283241   0.000000
     22         21.398716   0.000000
     23         22.970200   0.000000
     24         23.456249   0.000000
     25         23.639468   0.000000
     26         24.194312   0.000000
     27         24.359132   0.000000
     28         24.680498   0.000000
     29         25.517870   0.000000
     30         26.729481   0.000000
     31         28.410894   0.000000
     32         29.190226   0.000000
     33         29.590053   0.000000
     34         30.535496   0.000000
     35         30.735297   0.000000
     36         31.615785   0.000000
     37         33.052548   0.000000
     38         33.913433   0.000000
     39         36.268417   0.000000
     40         37.051071   0.000000
     41         37.870759   0.000000
     42         38.285248   0.000000
     43         39.168249   0.000000
     44         39.671061   0.000000
     45         40.614695   0.000000
     46         40.810859   0.000000
     47         41.203007   0.000000
     48         41.894631   0.000000
 
  0.3750000E+00  0.1250000E+00  0.0000000E+00  0.1562500E-01
      1         -7.653042   1.000000
      2         -7.652229   1.000000
      3         -7.593496   1.000000
      4         -7.568471   1.000000
      5         -7.506339   1.000000
      6         -7.504338   1.000000
      7         -7.460838   1.000000
      8         -7.418928   1.000000
      9         -7.379360   1.000000
     10         -7.362417   1.000000
     11          0.104455   1.000000
     12          3.660930   1.000000
     13          6.540376   1.000000
     14          7.042825   0.057673
     15          9.903386   0.000000
     16         10.783690   0.000000
     17         11.681708   0.000000
     18         14.924426   0.000000
     19         17.841423   0.000000
     20         18.104438   0.000000
     21         18.672006   0.000000
     22         21.348096   0.000000
     23         22.189282   0.000000
     24         22.795711   0.000000
     25         24.294524   0.000000
     26         24.500273   0.000000
     27         25.389164   0.000000
     28         25.744910   0.000000
     29         26.025125   0.000000
     30         27.299508   0.000000
     31         28.083874   0.000000
     32         28.342734   0.000000
     33         28.598783   0.000000
     34         30.621656   0.000000
     35         32.052366   0.000000
     36         34.132123   0.000000
     37         34.136702   0.000000
     38         35.013525   0.000000
     39         36.341320   0.000000
     40         37.499205   0.000000
     41         37.954570   0.000000
     42         38.194908   0.000000
     43         38.908865   0.000000
     44         41.350611   0.000000
     45         41.384727   0.000000
     46         41.639926   0.000000
     47         41.902805   0.000000
     48         42.427992   0.000000
 
  0.5000000E+00  0.1250000E+00  0.0000000E+00  0.7812500E-02
      1         -7.631636   1.000000
      2         -7.631636   1.000000
      3         -7.621140   1.000000
      4         -7.621140   1.000000
      5         -7.507505   1.000000
      6         -7.507505   1.000000
      7         -7.409034   1.000000
      8         -7.409034   1.000000
      9         -7.365932   1.000000
     10         -7.365932   1.000000
     11          1.743182   1.000000
     12          1.743182   1.000000
     13          7.869254   0.000000
     14          7.869254   0.000000
     15          8.732167   0.000000
     16          8.732167   0.000000
     17         13.200252   0.000000
     18         13.200252   0.000000
     19         18.677627   0.000000
     20         18.677627   0.000000
     21         19.555359   0.000000
     22         19.555359   0.000000
     23         21.635008   0.000000
     24         21.635008   0.000000
     25         25.705403   0.000000
     26         25.705403   0.000000
     27         26.127335   0.000000
     28         26.127335   0.000000
     29         26.720063   0.000000
     30         26.720063   0.000000
     31         26.862259   0.000000
     32         26.862259   0.000000
     33         30.140015   0.000000
     34         30.140015   0.000000
     35         34.491196   0.000000
     36         34.491196   0.000000
     37         35.523825   0.000000
     38         35.523825   0.000000
     39         36.674676   0.000000
     40         36.674676   0.000000
     41         37.063879   0.000000
     42         37.063879   0.000000
     43         39.583905   0.000000
     44         39.583905   0.000000
     45         41.800522   0.000000
     46         41.800522   0.000000
     47         42.873452   0.000000
     48         42.873452   0.000000
 
  0.2500000E+00  0.2500000E+00  0.0000000E+00  0.7812500E-02
      1         -7.683631   1.000000
      2         -7.613320   1.000000
      3         -7.566295   1.000000
      4         -7.565928   1.000000
      5         -7.558771   1.000000
      6         -7.475029   1.000000
      7         -7.463819   1.000000
      8         -7.427532   1.000000
      9         -7.421771   1.000000
     10         -7.322106   1.000000
     11         -0.375873   1.000000
     12          4.945650   1.000000
     13          6.532194   1.000000
     14          7.329346   0.000000
     15          8.405524   0.000000
     16         12.544694   0.000000
     17         12.895430   0.000000
     18         13.076204   0.000000
     19         15.329454   0.000000
     20         16.051765   0.000000
     21         20.444705   0.000000
     22         20.977150   0.000000
     23         21.796274   0.000000
     24         23.254355   0.000000
     25         23.751707   0.000000
     26         25.547430   0.000000
     27         26.861407   0.000000
     28         27.008628   0.000000
     29         27.410347   0.000000
     30         27.883192   0.000000
     31         29.040020   0.000000
     32         29.479887   0.000000
     33         30.448451   0.000000
     34         30.874401   0.000000
     35         31.194169   0.000000
     36         32.061913   0.000000
     37         32.180732   0.000000
     38         33.714383   0.000000
     39         35.198381   0.000000
     40         35.394484   0.000000
     41         36.666399   0.000000
     42         37.591281   0.000000
     43         40.768112   0.000000
     44         40.779923   0.000000
     45         40.864710   0.000000
     46         42.532277   0.000000
     47         42.743111   0.000000
     48         43.105166   0.000000
 
  0.3750000E+00  0.2500000E+00  0.0000000E+00  0.1562500E-01
      1         -7.711904   1.000000
      2         -7.651319   1.000000
      3         -7.629358   1.000000
      4         -7.614663   1.000000
      5         -7.471224   1.000000
      6         -7.443391   1.000000
      7         -7.415360   1.000000
      8         -7.391251   1.000000
      9         -7.358220   1.000000
     10         -7.337712   1.000000
     11          0.802816   1.000000
     12          4.328663   1.000000
     13          6.791065   1.000000
     14          7.747475   0.000000
     15          9.187658   0.000000
     16         10.235802   0.000000
     17         11.237779   0.000000
     18         12.168700   0.000000
     19         15.526152   0.000000
     20         15.716847   0.000000
     21         18.527061   0.000000
     22         18.830129   0.000000
     23         23.279032   0.000000
     24         25.023017   0.000000
     25         25.796218   0.000000
     26         26.397301   0.000000
     27         26.688542   0.000000
     28         28.024555   0.000000
     29         28.097591   0.000000
     30         28.849494   0.000000
     31         28.856788   0.000000
     32         30.424526   0.000000
     33         31.060684   0.000000
     34         31.779173   0.000000
     35         32.199367   0.000000
     36         33.036000   0.000000
     37         33.171494   0.000000
     38         33.464991   0.000000
     39         35.116037   0.000000
     40         35.916924   0.000000
     41         36.425575   0.000000
     42         37.292791   0.000000
     43         38.094600   0.000000
     44         40.876662   0.000000
     45         41.734450   0.000000
     46         41.872508   0.000000
     47         42.758101   0.000000
     48         43.420236   0.000000
 
  0.5000000E+00  0.2500000E+00  0.0000000E+00  0.7812500E-02
      1         -7.703635   1.000000
      2         -7.703635   1.000000
      3         -7.637420   1.000000
      4         -7.637420   1.000000
      5         -7.451401   1.000000
      6         -7.451401   1.000000
      7         -7.371127   1.000000
      8         -7.371127   1.000000
      9         -7.332892   1.000000
     10         -7.332892   1.000000
     11          2.434385   1.000000
     12          2.434385   1.000000
     13          8.160087   0.000000
     14          8.160087   0.000000
     15          9.352509   0.000000
     16          9.352509   0.000000
     17         10.615625   0.000000
     18         10.615625   0.000000
     19         16.701146   0.000000
     20         16.701146   0.000000
     21         17.048975   0.000000
     22         17.048975   0.000000
     23         24.601287   0.000000
     24         24.601287   0.000000
     25         26.747422   0.000000
     26         26.747422   0.000000
     27         27.001639   0.000000
     28         27.001639   0.000000
     29         29.155358   0.000000
     30         29.155358   0.000000
     31         29.947187   0.000000
     32         29.947187   0.000000
     33         31.041430   0.000000
     34         31.041430   0.000000
     35         34.096908   0.000000
     36         34.096908   0.000000
     37         34.334575   0.000000
     38         34.334575   0.000000
     39         34.839784   0.000000
     40         34.839784   0.000000
     41         36.464537   0.000000
     42         36.464537   0.000000
     43         39.269342   0.000000
     44         39.269342   0.000000
     45         41.861309   0.000000
     46         41.861309   0.000000
     47         42.029858   0.000000
     48         42.029858   0.000000
 
  0.3750000E+00  0.3750000E+00  0.0000000E+00  0.7812500E-02
      1         -7.756309   1.000000
      2         -7.725206   1.000000
      3         -7.675345   1.000000
      4         -7.671960   1.000000
      5         -7.381016   1.000000
      6         -7.374099   1.000000
      7         -7.369526   1.000000
      8         -7.343205   1.000000
      9         -7.331827   1.000000
     10         -7.315982   1.000000
     11          1.971935   1.000000
     12          5.304308   1.000000
     13          5.740644   1.000000
     14          8.857017   0.000000
     15          8.860010   0.000000
     16          9.149664   0.000000
     17         10.900009   0.000000
     18         11.346448   0.000000
     19         14.126742   0.000000
     20         14.401605   0.000000
     21         16.349325   0.000000
     22         16.691518   0.000000
     23         26.201730   0.000000
     24         26.288899   0.000000
     25         26.400639   0.000000
     26         28.036490   0.000000
     27         28.084127   0.000000
     28         29.137681   0.000000
     29         29.929009   0.000000
     30         30.583132   0.000000
     31         30.857280   0.000000
     32         31.566952   0.000000
     33         31.621993   0.000000
     34         31.790683   0.000000
     35         32.260231   0.000000
     36         33.533474   0.000000
     37         33.739857   0.000000
     38         34.209191   0.000000
     39         34.923699   0.000000
     40         35.613715   0.000000
     41         35.666557   0.000000
     42         36.838925   0.000000
     43         37.647499   0.000000
     44         39.136268   0.000000
     45         39.375973   0.000000
     46         40.776357   0.000000
     47         41.328022   0.000000
     48         41.759852   0.000000
 
  0.5000000E+00  0.3750000E+00  0.0000000E+00  0.7812500E-02
      1         -7.763475   1.000000
      2         -7.763475   1.000000
      3         -7.696095   1.000000
      4         -7.696095   1.000000
      5         -7.366018   1.000000
      6         -7.366018   1.000000
      7         -7.344945   1.000000
      8         -7.344945   1.000000
      9         -7.284523   1.000000
     10         -7.284523   1.000000
     11          3.591755   1.000000
     12          3.591755   1.000000
     13          7.125746   0.000044
     14          7.125746   0.000044
     15          9.943435   0.000000
     16          9.943435   0.000000
     17         10.236255   0.000000
     18         10.236255   0.000000
     19         14.646864   0.000000
     20         14.646864   0.000000
     21         15.041878   0.000000
     22         15.041878   0.000000
     23         26.768933   0.000000
     24         26.768933   0.000000
     25         27.742470   0.000000
     26         27.742470   0.000000
     27         28.814071   0.000000
     28         28.814071   0.000000
     29         31.300876   0.000000
     30         31.300876   0.000000
     31         31.507140   0.000000
     32         31.507140   0.000000
     33         32.663705   0.000000
     34         32.663705   0.000000
     35         33.481813   0.000000
     36         33.481813   0.000000
     37         33.605009   0.000000
     38         33.605009   0.000000
     39         35.277016   0.000000
     40         35.277016   0.000000
     41         36.054980   0.000000
     42         36.054980   0.000000
     43         38.495790   0.000000
     44         38.495790   0.000000
     45         39.525411   0.000000
     46         39.525411   0.000000
     47         40.860094   0.000000
     48         40.860094   0.000000
 
  0.5000000E+00  0.5000000E+00  0.0000000E+00  0.1953125E-02
      1         -7.786422   1.000000
      2         -7.786422   1.000000
      3         -7.720913   1.000000
      4         -7.720913   1.000000
      5         -7.346972   1.000000
      6         -7.346972   1.000000
      7         -7.335835   1.000000
      8         -7.335835   1.000000
      9         -7.246754   1.000000
     10         -7.246754   1.000000
     11          5.177598   1.000000
     12          5.177598   1.000000
     13          5.226634   1.000000
     14          5.226634   1.000000
     15         10.323444   0.000000
     16         10.323444   0.000000
     17         10.808154   0.000000
     18         10.808154   0.000000
     19         13.685478   0.000000
     20         13.685478   0.000000
     21         14.097954   0.000000
     22         14.097954   0.000000
     23         26.930421   0.000000
     24         26.930421   0.000000
     25         28.481560   0.000000
     26         28.481560   0.000000
     27         30.783723   0.000000
     28         30.783723   0.000000
     29         31.096494   0.000000
     30         31.096494   0.000000
     31         32.288846   0.000000
     32         32.288846   0.000000
     33         32.343594   0.000000
     34         32.343594   0.000000
     35         34.589507   0.000000
     36         34.589507   0.000000
     37         34.639422   0.000000
     38         34.639422   0.000000
     39         35.167140   0.000000
     40         35.167140   0.000000
     41         35.802407   0.000000
     42         35.802407   0.000000
     43         36.782833   0.000000
     44         36.782833   0.000000
     45         39.692694   0.000000
     46         39.692694   0.000000
     47         40.842416   0.000000
     48         40.842417   0.000000
 
  0.1187284E-32  0.1187284E-32  0.1250000E+00  0.3906250E-02
      1         -7.824352   1.000000
      2         -7.709505   1.000000
      3         -7.690106   1.000000
      4         -7.570326   1.000000
      5         -7.570326   1.000000
      6         -7.527793   1.000000
      7         -7.414724   1.000000
      8         -7.335352   1.000000
      9         -7.319214   1.000000
     10         -7.319214   1.000000
     11         -2.146166   1.000000
     12          2.637448   1.000000
     13          5.846587   1.000000
     14         11.745776   0.000000
     15         11.745776   0.000000
     16         15.005954   0.000000
     17         15.058671   0.000000
     18         16.500831   0.000000
     19         16.500831   0.000000
     20         16.775638   0.000000
     21         17.994104   0.000000
     22         20.146629   0.000000
     23         21.086553   0.000000
     24         21.312020   0.000000
     25         21.312020   0.000000
     26         23.200870   0.000000
     27         25.512926   0.000000
     28         25.512926   0.000000
     29         26.343202   0.000000
     30         28.447529   0.000000
     31         29.061220   0.000000
     32         30.306702   0.000000
     33         30.306702   0.000000
     34         30.526413   0.000000
     35         31.027627   0.000000
     36         31.609052   0.000000
     37         32.052188   0.000000
     38         32.052188   0.000000
     39         34.594429   0.000000
     40         34.594429   0.000000
     41         34.955813   0.000000
     42         35.028263   0.000000
     43         37.935939   0.000000
     44         38.006220   0.000000
     45         38.943887   0.000000
     46         38.943887   0.000000
     47         40.365099   0.000000
     48         41.921235   0.000000
 
  0.1250000E+00  0.6579887E-32  0.1250000E+00  0.1562500E-01
      1         -7.790924   1.000000
      2         -7.683209   1.000000
      3         -7.664510   1.000000
      4         -7.584046   1.000000
      5         -7.560962   1.000000
      6         -7.512660   1.000000
      7         -7.425418   1.000000
      8         -7.361766   1.000000