O                                       
   1.00000000000000     
     3.923890    0.000000    1.688167
    -0.000000    4.276820    0.000000
     0.000000    0.000000    4.571480
   O 
     4
Direct
  0.937820  0.000000  0.146670
  0.062180  0.000000  0.853330
  0.437820  0.500000  0.146670
  0.562180  0.500000  0.853330
 
   48   48   56
  263.39      254.15      228.56      192.23      152.20      114.34      82.450      57.936      40.190      27.722    
  19.037      12.989      8.7890      5.9160      4.0046      2.7571      1.9288      1.3597     0.97213     0.71950    
 0.55375     0.44123     0.37462     0.34900     0.34477     0.34900     0.37462     0.44123     0.55375     0.71950    
 0.97213      1.3597      1.9288      2.7571      4.0046      5.9160      8.7890      12.989      19.037      27.722    
  40.190      57.936      82.450      114.34      152.20      192.23      228.56      254.15      254.13      245.25    
  220.67      185.78      147.32      110.87      80.134      56.463      39.275      27.155      18.682      12.765    
  8.6491      5.8317      3.9555      2.7290      1.9135      1.3533     0.97153     0.72195     0.55792     0.44667    
 0.38031     0.35375     0.34885     0.35375     0.38031     0.44667     0.55792     0.72195     0.97153      1.3533    
  1.9135      2.7290      3.9555      5.8317      8.6491      12.765      18.682      27.155      39.275      56.463    
  80.134      110.87      147.32      185.78      220.67      245.25      228.48      220.61      198.84      167.94    
  133.74      101.19      73.664      52.325      36.686      25.539      17.665      12.120      8.2458      5.5881    
  3.8136      2.6479      1.8700      1.3356     0.97120     0.73179     0.57478     0.46973     0.40681     0.37992    
 0.37409     0.37992     0.40681     0.46973     0.57478     0.73179     0.97120      1.3356      1.8700      2.6479    
  3.8136      5.5881      8.2458      12.120      17.665      25.539      36.686      52.325      73.664      101.19    
  133.74      167.94      198.84      220.61      192.08      185.65      167.87      142.54      114.27      87.283    
  64.297      46.269      32.846      23.107      16.115      11.131      7.6249      5.2121      3.5943      2.5236    
  1.8052      1.3120     0.97614     0.75567     0.61356     0.52227     0.46909     0.44567     0.44009     0.44567    
 0.46909     0.52227     0.61356     0.75567     0.97614      1.3120      1.8052      2.5236      3.5943      5.2121    
  7.6249      11.131      16.115      23.107      32.846      46.269      64.297      87.283      114.27      142.54    
  167.87      185.65      152.00      147.14      133.61      114.21      92.487      71.611      53.616      39.244    
  28.300      20.170      14.214      9.9065      6.8533      4.7441      3.3218      2.3723      1.7315      1.2928    
 0.99633     0.80409     0.68444     0.61252     0.57310     0.55588     0.55159     0.55588     0.57310     0.61252    
 0.68444     0.80409     0.99633      1.2928      1.7315      2.3723      3.3218      4.7441      6.8533      9.9065    
  14.214      20.170      28.300      39.244      53.616      71.611      92.487      114.21      133.61      147.14    
  114.13      110.67      101.04      87.184      71.567      56.380      43.043      32.124      23.570      17.041    
  12.152      8.5671      6.0074      4.2313      3.0263      2.2153      1.6665      1.2943      1.0479     0.89325    
 0.80261     0.75311     0.72852     0.71829     0.71570     0.71829     0.72852     0.75311     0.80261     0.89325    
  1.0479      1.2943      1.6665      2.2153      3.0263      4.2313      6.0074      8.5671      12.152      17.041    
  23.570      32.124      43.043      56.380      71.567      87.184      101.04      110.67      82.244      79.940    
  73.505      64.185      53.550      43.016      33.531      25.527      19.057      13.982      10.104      7.2275    
  5.1615      3.7222      2.7409      2.0780      1.6323      1.3378      1.1525      1.0461     0.99297     0.97160    
 0.96584     0.96569     0.96613     0.96569     0.96584     0.97160     0.99297      1.0461      1.1525      1.3378    
  1.6323      2.0780      2.7409      3.7222      5.1615      7.2275      10.104      13.982      19.057      25.527    
  33.531      43.016      53.550      64.185      73.505      79.940      57.759      56.294      52.182      46.161    
  39.172      32.083      25.511      19.784      15.013      11.180      8.2061      5.9822      4.3794      3.2606    
  2.4978      1.9868      1.6532      1.4476      1.3357      1.2903      1.2872      1.3050      1.3277      1.3447    
  1.3509      1.3447      1.3277      1.3050      1.2872      1.2903      1.3357      1.4476      1.6532      1.9868    
  2.4978      3.2606      4.3794      5.9822      8.2061      11.180      15.013      19.784      25.511      32.083    
  39.172      46.161      52.182      56.294      40.046      39.137      36.566      32.751      28.231      23.526    
  19.033      15.003      11.563      8.7518      6.5502      4.8983      3.7082      2.8813      2.3256      1.9676    
  1.7549      1.6510      1.6279      1.6599      1.7230      1.7951      1.8586      1.9014      1.9163      1.9014    
  1.8586      1.7951      1.7230      1.6599      1.6279      1.6510      1.7549      1.9676      2.3256      2.8813    
  3.7082      4.8983      6.5502      8.7518      11.563      15.003      19.033      23.526      28.231      32.751    
  36.566      39.137      27.609      27.046      25.442      23.027      20.110      16.999      13.955      11.165    
  8.7461      6.7512      5.1850      4.0132      3.1768      2.6088      2.2476      2.0449      1.9654      1.9823    
  2.0708      2.2055      2.3600      2.5091      2.6315      2.7115      2.7393      2.7115      2.6315      2.5091    
  2.3600      2.2055      2.0708      1.9823      1.9654      2.0449      2.2476      2.6088      3.1768      4.0132    
  5.1850      6.7512      8.7461      11.165      13.955      16.999      20.110      23.027      25.442      27.046    
  18.950      18.598      17.588      16.050      14.162      12.114      10.078      8.1904      6.5420      5.1819    
  4.1203      3.3379      2.7979      2.4589      2.2843      2.2458      2.3214      2.4907      2.7305      3.0124    
  3.3043      3.5735      3.7902      3.9304      3.9789      3.9304      3.7902      3.5735      3.3043      3.0124    
  2.7305      2.4907      2.3214      2.2458      2.2843      2.4589      2.7979      3.3379      4.1203      5.1819    
  6.5420      8.1904      10.078      12.114      14.162      16.050      17.588      18.598      12.922      12.700    
  12.061      11.080      9.8648      8.5353      7.2049      5.9675      4.8897      4.0089      3.3364      2.8638    
  2.5726      2.4427      2.4577      2.6056      2.8752      3.2508      3.7080      4.2122      4.7199      5.1832    
  5.5552      5.7963      5.8798      5.7963      5.5552      5.1832      4.7199      4.2122      3.7080      3.2508    
  2.8752      2.6056      2.4577      2.4427      2.5726      2.8638      3.3364      4.0089      4.8897      5.9675    
  7.2049      8.5353      9.8648      11.080      12.061      12.700      8.7392      8.6006      8.2010      7.5858    
  6.8210      5.9821      5.1431      4.3669      3.7005      3.1727      2.7961      2.5722      2.4982      2.5722    
  2.7961      3.1727      3.7005      4.3669      5.1431      5.9821      6.8210      7.5858      8.2010      8.6006    
  8.7392      8.6006      8.2010      7.5858      6.8210      5.9821      5.1431      4.3669      3.7005      3.1727    
  2.7961      2.5722      2.4982      2.5722      2.7961      3.1727      3.7005      4.3669      5.1431      5.9821    
  6.8210      7.5858      8.2010      8.6006      5.8798      5.7963      5.5552      5.1832      4.7199      4.2122    
  3.7080      3.2508      2.8752      2.6056      2.4577      2.4427      2.5726      2.8638      3.3364      4.0089    
  4.8897      5.9675      7.2049      8.5353      9.8648      11.080      12.061      12.700      12.922      12.700    
  12.061      11.080      9.8648      8.5353      7.2049      5.9675      4.8897      4.0089      3.3364      2.8638    
  2.5726      2.4427      2.4577      2.6056      2.8752      3.2508      3.7080      4.2122      4.7199      5.1832    
  5.5552      5.7963      3.9789      3.9304      3.7902      3.5735      3.3043      3.0124      2.7305      2.4907    
  2.3214      2.2458      2.2843      2.4589      2.7979      3.3379      4.1203      5.1819      6.5420      8.1904    
  10.078      12.114      14.162      16.050      17.588      18.598      18.950      18.598      17.588      16.050    
  14.162      12.114      10.078      8.1904      6.5420      5.1819      4.1203      3.3379      2.7979      2.4589    
  2.2843      2.2458      2.3214      2.4907      2.7305      3.0124      3.3043      3.5735      3.7902      3.9304    
  2.7393      2.7115      2.6315      2.5091      2.3600      2.2055      2.0708      1.9823      1.9654      2.0449    
  2.2476      2.6088      3.1768      4.0132      5.1850      6.7512      8.7461      11.165      13.955      16.999    
  20.110      23.027      25.442      27.046      27.609      27.046      25.442      23.027      20.110      16.999    
  13.955      11.165      8.7461      6.7512      5.1850      4.0132      3.1768      2.6088      2.2476      2.0449    
  1.9654      1.9823      2.0708      2.2055      2.3600      2.5091      2.6315      2.7115      1.9163      1.9014    
  1.8586      1.7951      1.7230      1.6599      1.6279      1.6510      1.7549      1.9676      2.3256      2.8813    
  3.7082      4.8983      6.5502      8.7518      11.563      15.003      19.033      23.526      28.231      32.751    
  36.566      39.137      40.046      39.137      36.566      32.751      28.231      23.526      19.033      15.003    
  11.563      8.7518      6.5502      4.8983      3.7082      2.8813      2.3256      1.9676      1.7549      1.6510    
  1.6279      1.6599      1.7230      1.7951      1.8586      1.9014      1.3509      1.3447      1.3277      1.3050    
  1.2872      1.2903      1.3357      1.4476      1.6532      1.9868      2.4978      3.2606      4.3794      5.9822    
  8.2061      11.180      15.013      19.784      25.511      32.083      39.172      46.161      52.182      56.294    
  57.759      56.294      52.182      46.161      39.172      32.083      25.511      19.784      15.013      11.180    
  8.2061      5.9822      4.3794      3.2606      2.4978      1.9868      1.6532      1.4476      1.3357      1.2903    
  1.2872      1.3050      1.3277      1.3447     0.96613     0.96569     0.96584     0.97160     0.99297      1.0461    
  1.1525      1.3378      1.6323      2.0780      2.7409      3.7222      5.1615      7.2275      10.104      13.982    
  19.057      25.527      33.531      43.016      53.550      64.185      73.505      79.940      82.244      79.940    
  73.505      64.185      53.550      43.016      33.531      25.527      19.057      13.982      10.104      7.2275    
  5.1615      3.7222      2.7409      2.0780      1.6323      1.3378      1.1525      1.0461     0.99297     0.97160    
 0.96584     0.96569     0.71570     0.71829     0.72852     0.75311     0.80261     0.89325      1.0479      1.2943    
  1.6665      2.2153      3.0263      4.2313      6.0074      8.5671      12.152      17.041      23.570      32.124    
  43.043      56.380      71.567      87.184      101.04      110.67      114.13      110.67      101.04      87.184    
  71.567      56.380      43.043      32.124      23.570      17.041      12.152      8.5671      6.0074      4.2313    
  3.0263      2.2153      1.6665      1.2943      1.0479     0.89325     0.80261     0.75311     0.72852     0.71829    
 0.55159     0.55588     0.57310     0.61252     0.68444     0.80409     0.99633      1.2928      1.7315      2.3723    
  3.3218      4.7441      6.8533      9.9065      14.214      20.170      28.300      39.244      53.616      71.611    
  92.487      114.21      133.61      147.14      152.00      147.14      133.61      114.21      92.487      71.611    
  53.616      39.244      28.300      20.170      14.214      9.9065      6.8533      4.7441      3.3218      2.3723    
  1.7315      1.2928     0.99633     0.80409     0.68444     0.61252     0.57310     0.55588     0.44009     0.44567    
 0.46909     0.52227     0.61356     0.75567     0.97614      1.3120      1.8052      2.5236      3.5943      5.2121    
  7.6249      11.131      16.115      23.107      32.846      46.269      64.297      87.283      114.27      142.54    
  167.87      185.65      192.08      185.65      167.87      142.54      114.27      87.283      64.297      46.269    
  32.846      23.107      16.115      11.131      7.6249      5.2121      3.5943      2.5236      1.8052      1.3120    
 0.97614     0.75567     0.61356     0.52227     0.46909     0.44567     0.37409     0.37992     0.40681     0.46973    
 0.57478     0.73179     0.97120      1.3356      1.8700      2.6479      3.8136      5.5881      8.2458      12.120    
  17.665      25.539      36.686      52.325      73.664      101.19      133.74      167.94      198.84      220.61    
  228.48      220.61      198.84      167.94      133.74      101.19      73.664      52.325      36.686      25.539    
  17.665      12.120      8.2458      5.5881      3.8136      2.6479      1.8700      1.3356     0.97120     0.73179    
 0.57478     0.46973     0.40681     0.37992     0.34885     0.35375     0.38031     0.44667     0.55792     0.72195    
 0.97153      1.3533      1.9135      2.7290      3.9555      5.8317      8.6491      12.765      18.682      27.155    
  39.275      56.463      80.134      110.87      147.32      185.78      220.67      245.25      254.13      245.25    
  220.67      185.78      147.32      110.87      80.134      56.463      39.275      27.155      18.682      12.765    
  8.6491      5.8317      3.9555      2.7290      1.9135      1.3533     0.97153     0.72195     0.55792     0.44667    
 0.38031     0.35375     0.34477     0.34900     0.37462     0.44123     0.55375     0.71950     0.97213      1.3597    
  1.9288      2.7571      4.0046      5.9160      8.7890      12.989      19.037      27.722      40.190      57.936    
  82.450      114.34      152.20      192.23      228.56      254.15      263.39      254.15      228.56      192.23    
  152.20      114.34      82.450      57.936      40.190      27.722      19.037      12.989      8.7890      5.9160    
  4.0046      2.7571      1.9288      1.3597     0.97213     0.71950     0.55375     0.44123     0.37462     0.34900    
 0.34885     0.35375     0.38031     0.44667     0.55792     0.72195     0.97153      1.3533      1.9135      2.7290    
  3.9555      5.8317      8.6491      12.765      18.682      27.155      39.275      56.463      80.134      110.87    
  147.32      185.78      220.67      245.25      254.13      245.25      220.67      185.78      147.32      110.87    
  80.134      56.463      39.275      27.155      18.682      12.765      8.6491      5.8317      3.9555      2.7290    
  1.9135      1.3533     0.97153     0.72195     0.55792     0.44667     0.38031     0.35375     0.37409     0.37992    
 0.40681     0.46973     0.57478     0.73179     0.97120      1.3356      1.8700      2.6479      3.8136      5.5881    
  8.2458      12.120      17.665      25.539      36.686      52.325      73.664      101.19      133.74      167.94    
  198.84      220.61      228.48      220.61      198.84      167.94      133.74      101.19      73.664      52.325    
  36.686      25.539      17.665      12.120      8.2458      5.5881      3.8136      2.6479      1.8700      1.3356    
 0.97120     0.73179     0.57478     0.46973     0.40681     0.37992     0.44009     0.44567     0.46909     0.52227    
 0.61356     0.75567     0.97614      1.3120      1.8052      2.5236      3.5943      5.2121      7.6249      11.131    
  16.115      23.107      32.846      46.269      64.297      87.283      114.27      142.54      167.87      185.65    
  192.08      185.65      167.87      142.54      114.27      87.283      64.297      46.269      32.846      23.107    
  16.115      11.131      7.6249      5.2121      3.5943      2.5236      1.8052      1.3120     0.97614     0.75567    
 0.61356     0.52227     0.46909     0.44567     0.55159     0.55588     0.57310     0.61252     0.68444     0.80409    
 0.99633      1.2928      1.7315      2.3723      3.3218      4.7441      6.8533      9.9065      14.214      20.170    
  28.300      39.244      53.616      71.611      92.487      114.21      133.61      147.14      152.00      147.14    
  133.61      114.21      92.487      71.611      53.616      39.244      28.300      20.170      14.214      9.9065    
  6.8533      4.7441      3.3218      2.3723      1.7315      1.2928     0.99633     0.80409     0.68444     0.61252    
 0.57310     0.55588     0.71570     0.71829     0.72852     0.75311     0.80261     0.89325      1.0479      1.2943    
  1.6665      2.2153      3.0263      4.2313      6.0074      8.5671      12.152      17.041      23.570      32.124    
  43.043      56.380      71.567      87.184      101.04      110.67      114.13      110.67      101.04      87.184    
  71.567      56.380      43.043      32.124      23.570      17.041      12.152      8.5671      6.0074      4.2313    
  3.0263      2.2153      1.6665      1.2943      1.0479     0.89325     0.80261     0.75311     0.72852     0.71829    
 0.96613     0.96569     0.96584     0.97160     0.99297      1.0461      1.1525      1.3378      1.6323      2.0780    
  2.7409      3.7222      5.1615      7.2275      10.104      13.982      19.057      25.527      33.531      43.016    
  53.550      64.185      73.505      79.940      82.244      79.940      73.505      64.185      53.550      43.016    
  33.531      25.527      19.057      13.982      10.104      7.2275      5.1615      3.7222      2.7409      2.0780    
  1.6323      1.3378      1.1525      1.0461     0.99297     0.97160     0.96584     0.96569      1.3509      1.3447    
  1.3277      1.3050      1.2872      1.2903      1.3357      1.4476      1.6532      1.9868      2.4978      3.2606    
  4.3794      5.9822      8.2061      11.180      15.013      19.784      25.511      32.083      39.172      46.161    
  52.182      56.294      57.759      56.294      52.182      46.161      39.172      32.083      25.511      19.784    
  15.013      11.180      8.2061      5.9822      4.3794      3.2606      2.4978      1.9868      1.6532      1.4476    
  1.3357      1.2903      1.2872      1.3050      1.3277      1.3447      1.9163      1.9014      1.8586      1.7951    
  1.7230      1.6599      1.6279      1.6510      1.7549      1.9676      2.3256      2.8813      3.7082      4.8983    
  6.5502      8.7518      11.563      15.003      19.033      23.526      28.231      32.751      36.566      39.137    
  40.046      39.137      36.566      32.751      28.231      23.526      19.033      15.003      11.563      8.7518    
  6.5502      4.8983      3.7082      2.8813      2.3256      1.9676      1.7549      1.6510      1.6279      1.6599    
  1.7230      1.7951      1.8586      1.9014      2.7393      2.7115      2.6315      2.5091      2.3600      2.2055    
  2.0708      1.9823      1.9654      2.0449      2.2476      2.6088      3.1768      4.0132      5.1850      6.7512    
  8.7461      11.165      13.955      16.999      20.110      23.027      25.442      27.046      27.609      27.046    
  25.442      23.027      20.110      16.999      13.955      11.165      8.7461      6.7512      5.1850      4.0132    
  3.1768      2.6088      2.2476      2.0449      1.9654      1.9823      2.0708      2.2055      2.3600      2.5091    
  2.6315      2.7115      3.9789      3.9304      3.7902      3.5735      3.3043      3.0124      2.7305      2.4907    
  2.3214      2.2458      2.2843      2.4589      2.7979      3.3379      4.1203      5.1819      6.5420      8.1904    
  10.078      12.114      14.162      16.050      17.588      18.598      18.950      18.598      17.588      16.050    
  14.162      12.114      10.078      8.1904      6.5420      5.1819      4.1203      3.3379      2.7979      2.4589    
  2.2843      2.2458      2.3214      2.4907      2.7305      3.0124      3.3043      3.5735      3.7902      3.9304    
  5.8798      5.7963      5.5552      5.1832      4.7199      4.2122      3.7080      3.2508      2.8752      2.6056    
  2.4577      2.4427      2.5726      2.8638      3.3364      4.0089      4.8897      5.9675      7.2049      8.5353    
  9.8648      11.080      12.061      12.700      12.922      12.700      12.061      11.080      9.8648      8.5353    
  7.2049      5.9675      4.8897      4.0089      3.3364      2.8638      2.5726      2.4427      2.4577      2.6056    
  2.8752      3.2508      3.7080      4.2122      4.7199      5.1832      5.5552      5.7963      8.7392      8.6006    
  8.2010      7.5858      6.8210      5.9821      5.1431      4.3669      3.7005      3.1727      2.7961      2.5722    
  2.4982      2.5722      2.7961      3.1727      3.7005      4.3669      5.1431      5.9821      6.8210      7.5858    
  8.2010      8.6006      8.7392      8.6006      8.2010      7.5858      6.8210      5.9821      5.1431      4.3669    
  3.7005      3.1727      2.7961      2.5722      2.4982      2.5722      2.7961      3.1727      3.7005      4.3669    
  5.1431      5.9821      6.8210      7.5858      8.2010      8.6006      12.922      12.700      12.061      11.080    
  9.8648      8.5353      7.2049      5.9675      4.8897      4.0089      3.3364      2.8638      2.5726      2.4427    
  2.4577      2.6056      2.8752      3.2508      3.7080      4.2122      4.7199      5.1832      5.5552      5.7963    
  5.8798      5.7963      5.5552      5.1832      4.7199      4.2122      3.7080      3.2508      2.8752      2.6056    
  2.4577      2.4427      2.5726      2.8638      3.3364      4.0089      4.8897      5.9675      7.2049      8.5353    
  9.8648      11.080      12.061      12.700      18.950      18.598      17.588      16.050      14.162      12.114    
  10.078      8.1904      6.5420      5.1819      4.1203      3.3379      2.7979      2.4589      2.2843      2.2458    
  2.3214      2.4907      2.7305      3.0124      3.3043      3.5735      3.7902      3.9304      3.9789      3.9304    
  3.7902      3.5735      3.3043      3.0124      2.7305      2.4907      2.3214      2.2458      2.2843      2.4589    
  2.7979      3.3379      4.1203      5.1819      6.5420      8.1904      10.078      12.114      14.162      16.050    
  17.588      18.598      27.609      27.046      25.442      23.027      20.110      16.999      13.955      11.165    
  8.7461      6.7512      5.1850      4.0132      3.1768      2.6088      2.2476      2.0449      1.9654      1.9823    
  2.0708      2.2055      2.3600      2.5091      2.6315      2.7115      2.7393      2.7115      2.6315      2.5091    
  2.3600      2.2055      2.0708      1.9823      1.9654      2.0449      2.2476      2.6088      3.1768      4.0132    
  5.1850      6.7512      8.7461      11.165      13.955      16.999      20.110      23.027      25.442      27.046    
  40.046      39.137      36.566      32.751      28.231      23.526      19.033      15.003      11.563      8.7518    
  6.5502      4.8983      3.7082      2.8813      2.3256      1.9676      1.7549      1.6510      1.6279      1.6599    
  1.7230      1.7951      1.8586      1.9014      1.9163      1.9014      1.8586      1.7951      1.7230      1.6599    
  1.6279      1.6510      1.7549      1.9676      2.3256      2.8813      3.7082      4.8983      6.5502      8.7518    
  11.563      15.003      19.033      23.526      28.231      32.751      36.566      39.137      57.759      56.294    
  52.182      46.161      39.172      32.083      25.511      19.784      15.013      11.180      8.2061      5.9822    
  4.3794      3.2606      2.4978      1.9868      1.6532      1.4476      1.3357      1.2903      1.2872      1.3050    
  1.3277      1.3447      1.3509      1.3447      1.3277      1.3050      1.2872      1.2903      1.3357      1.4476    
  1.6532      1.9868      2.4978      3.2606      4.3794      5.9822      8.2061      11.180      15.013      19.784    
  25.511      32.083      39.172      46.161      52.182      56.294      82.244      79.940      73.505      64.185    
  53.550      43.016      33.531      25.527      19.057      13.982      10.104      7.2275      5.1615      3.7222    
  2.7409      2.0780      1.6323      1.3378      1.1525      1.0461     0.99297     0.97160     0.96584     0.96569    
 0.96613     0.96569     0.96584     0.97160     0.99297      1.0461      1.1525      1.3378      1.6323      2.0780    
  2.7409      3.7222      5.1615      7.2275      10.104      13.982      19.057      25.527      33.531      43.016    
  53.550      64.185      73.505      79.940      114.13      110.67      101.04      87.184      71.567      56.380    
  43.043      32.124      23.570      17.041      12.152      8.5671      6.0074      4.2313      3.0263      2.2153    
  1.6665      1.2943      1.0479     0.89325     0.80261     0.75311     0.72852     0.71829     0.71570     0.71829    
 0.72852     0.75311     0.80261     0.89325      1.0479      1.2943      1.6665      2.2153      3.0263      4.2313    
  6.0074      8.5671      12.152      17.041      23.570      32.124      43.043      56.380      71.567      87.184    
  101.04      110.67      152.00      147.14      133.61      114.21      92.487      71.611      53.616      39.244    
  28.300      20.170      14.214      9.9065      6.8533      4.7441      3.3218      2.3723      1.7315      1.2928    
 0.99633     0.80409     0.68444     0.61252     0.57310     0.55588     0.55159     0.55588     0.57310     0.61252    
 0.68444     0.80409     0.99633      1.2928      1.7315      2.3723      3.3218      4.7441      6.8533      9.9065    
  14.214      20.170      28.300      39.244      53.616      71.611      92.487      114.21      133.61      147.14    
  192.08      185.65      167.87      142.54      114.27      87.283      64.297      46.269      32.846      23.107    
  16.115      11.131      7.6249      5.2121      3.5943      2.5236      1.8052      1.3120     0.97614     0.75567    
 0.61356     0.52227     0.46909     0.44567     0.44009     0.44567     0.46909     0.52227     0.61356     0.75567    
 0.97614      1.3120      1.8052      2.5236      3.5943      5.2121      7.6249      11.131      16.115      23.107    
  32.846      46.269      64.297      87.283      114.27      142.54      167.87      185.65      228.48      220.61    
  198.84      167.94      133.74      101.19      73.664      52.325      36.686      25.539      17.665      12.120    
  8.2458      5.5881      3.8136      2.6479      1.8700      1.3356     0.97120     0.73179     0.57478     0.46973    
 0.40681     0.37992     0.37409     0.37992     0.40681     0.46973     0.57478     0.73179     0.97120      1.3356    
  1.8700      2.6479      3.8136      5.5881      8.2458      12.120      17.665      25.539      36.686      52.325    
  73.664      101.19      133.74      167.94      198.84      220.61      254.13      245.25      220.67      185.78    
  147.32      110.87      80.134      56.463      39.275      27.155      18.682      12.765      8.6491      5.8317    
  3.9555      2.7290      1.9135      1.3533     0.97153     0.72195     0.55792     0.44667     0.38031     0.35375    
 0.34885     0.35375     0.38031     0.44667     0.55792     0.72195     0.97153      1.3533      1.9135      2.7290    
  3.9555      5.8317      8.6491      12.765      18.682      27.155      39.275      56.463      80.134      110.87    
  147.32      185.78      220.67      245.25      269.54      253.80      223.04      183.44      142.24      105.18    
  74.983      52.239      35.996      24.678      16.848      11.435      7.7069      5.1815      3.5191      2.4372    
  1.7108      1.2075     0.86963     0.65415     0.51192     0.41509     0.36247     0.34754     0.34858     0.35814    
 0.39539     0.47848     0.61023     0.80399      1.1012      1.5520      2.2106      3.1814      4.6593      6.9157    
  10.278      15.179      22.267      32.511      47.264      68.115      96.285      131.62      172.14      212.87    
  246.71      267.00      260.29      245.10      215.47      177.37      137.75      102.08      72.937      50.949    
  35.198      24.185      16.541      11.243      7.5880      5.1111      3.4785      2.4141      1.6988      1.2034    
 0.87037     0.65705     0.51600     0.41996     0.36699     0.35086     0.35156     0.36219     0.40036     0.48303    
 0.61349     0.80533      1.0987      1.5426      2.1911      3.1463      4.5984      6.8122      10.109      14.908    
  21.833      31.811      46.130      66.303      93.496      127.54      166.50      205.67      238.28      257.84    
  234.48      220.88      194.41      160.51      125.29      93.410      67.211      47.319      32.939      22.780    
  15.659      10.687      7.2450      4.9074      3.3612      2.3477      1.6650      1.1928     0.87459     0.66948    
 0.53452     0.44385     0.39299     0.37566     0.37572     0.38761     0.42539     0.50367     0.62760     0.81175    
  1.0929      1.5164      2.1350      3.0452      4.4224      6.5137      9.6203      14.130      20.595      29.825    
  42.934      61.225      85.706      116.20      150.86      185.69      214.78      232.28      197.39      186.15    