    4    4    1    2
  0.1917938E+02  0.4271630E-09  0.4276820E-09  0.4571480E-09  0.5000000E-15
  1.000000000000000E-004
  CAR 
 O                                       
     24    170     48
 
  0.0000000E+00  0.0000000E+00  0.0000000E+00  0.1953125E-02
      1        -28.920609      -28.920609   1.000000   1.000000
      2        -27.730529      -27.730529   1.000000   1.000000
      3        -16.912473      -16.912473   1.000000   1.000000
      4        -15.160049      -15.160049   1.000000   1.000000
      5         -9.971358       -9.971358   1.000000   1.000000
      6         -9.711727       -9.711727   1.000000   1.000000
      7         -9.666192       -9.666192   1.000000   1.000000
      8         -8.874635       -8.874635   1.000000   1.000000
      9         -7.666688       -7.666688   1.000000   1.000000
     10         -7.645955       -7.645955   1.000000   1.000000
     11         -3.353972       -3.353972   1.000000   1.000000
     12         -3.218986       -3.218986   1.000000   1.000000
     13         -1.013545       -1.013545   0.000000   0.000000
     14         -0.909005       -0.909005   0.000000   0.000000
     15          4.151892        4.151892   0.000000   0.000000
     16          6.847631        6.847631   0.000000   0.000000
     17          7.770217        7.770217   0.000000   0.000000
     18          8.008206        8.008206   0.000000   0.000000
     19          8.927946        8.927946   0.000000   0.000000
     20         10.826619       10.826619   0.000000   0.000000
     21         11.719702       11.719702   0.000000   0.000000
     22         12.292724       12.292724   0.000000   0.000000
     23         12.379811       12.379811   0.000000   0.000000
     24         13.600052       13.600052   0.000000   0.000000
     25         14.604845       14.604845   0.000000   0.000000
     26         15.849058       15.849058   0.000000   0.000000
     27         16.882964       16.882964   0.000000   0.000000
     28         17.113207       17.113207   0.000000   0.000000
     29         19.075528       19.075528   0.000000   0.000000
     30         19.680769       19.680769   0.000000   0.000000
     31         19.882482       19.882482   0.000000   0.000000
     32         20.780571       20.780571   0.000000   0.000000
     33         21.696139       21.696139   0.000000   0.000000
     34         21.930893       21.930893   0.000000   0.000000
     35         23.727273       23.727273   0.000000   0.000000
     36         23.953580       23.953580   0.000000   0.000000
     37         24.887957       24.887957   0.000000   0.000000
     38         25.557700       25.557700   0.000000   0.000000
     39         26.856126       26.856126   0.000000   0.000000
     40         27.282078       27.282078   0.000000   0.000000
     41         27.474675       27.474675   0.000000   0.000000
     42         28.515594       28.515594   0.000000   0.000000
     43         30.482404       30.482404   0.000000   0.000000
     44         30.916135       30.916135   0.000000   0.000000
     45         31.965749       31.965749   0.000000   0.000000
     46         32.386593       32.386593   0.000000   0.000000
     47         32.963413       32.963413   0.000000   0.000000
     48         33.438151       33.438154   0.000000   0.000000
 
  0.1250000E+00  0.2990748E-32  0.0000000E+00  0.3906250E-02
      1        -28.918807      -28.918807   1.000000   1.000000
      2        -27.731720      -27.731720   1.000000   1.000000
      3        -16.913693      -16.913693   1.000000   1.000000
      4        -15.166001      -15.166001   1.000000   1.000000
      5         -9.954540       -9.954540   1.000000   1.000000
      6         -9.694965       -9.694965   1.000000   1.000000
      7         -9.673678       -9.673678   1.000000   1.000000
      8         -8.865481       -8.865481   1.000000   1.000000
      9         -7.687124       -7.687124   1.000000   1.000000
     10         -7.678096       -7.678096   1.000000   1.000000
     11         -3.344760       -3.344760   1.000000   1.000000
     12         -3.216759       -3.216759   1.000000   1.000000
     13         -1.029337       -1.029337   0.000000   0.000000
     14         -0.921092       -0.921092   0.000000   0.000000
     15          4.277654        4.277654   0.000000   0.000000
     16          6.722776        6.722776   0.000000   0.000000
     17          7.723221        7.723221   0.000000   0.000000
     18          8.095086        8.095086   0.000000   0.000000
     19          8.996236        8.996236   0.000000   0.000000
     20         10.920123       10.920123   0.000000   0.000000
     21         11.245706       11.245706   0.000000   0.000000
     22         12.052767       12.052767   0.000000   0.000000
     23         13.502175       13.502175   0.000000   0.000000
     24         13.632990       13.632990   0.000000   0.000000
     25         14.406174       14.406174   0.000000   0.000000
     26         15.989182       15.989182   0.000000   0.000000
     27         16.664926       16.664926   0.000000   0.000000
     28         16.793046       16.793046   0.000000   0.000000
     29         19.065677       19.065677   0.000000   0.000000
     30         19.331746       19.331746   0.000000   0.000000
     31         20.484725       20.484725   0.000000   0.000000
     32         20.558664       20.558664   0.000000   0.000000
     33         20.893308       20.893308   0.000000   0.000000
     34         22.246985       22.246985   0.000000   0.000000
     35         23.729371       23.729371   0.000000   0.000000
     36         24.204290       24.204290   0.000000   0.000000
     37         25.305239       25.305239   0.000000   0.000000
     38         26.043621       26.043621   0.000000   0.000000
     39         26.708480       26.708480   0.000000   0.000000
     40         27.189752       27.189752   0.000000   0.000000
     41         28.038563       28.038563   0.000000   0.000000
     42         28.306149       28.306149   0.000000   0.000000
     43         30.505106       30.505106   0.000000   0.000000
     44         30.651272       30.651272   0.000000   0.000000
     45         30.942264       30.942264   0.000000   0.000000
     46         31.829907       31.829907   0.000000   0.000000
     47         32.088769       32.088769   0.000000   0.000000
     48         33.854873       33.854873   0.000000   0.000000
 
  0.2500000E+00  0.5981495E-32  0.0000000E+00  0.3906250E-02
      1        -28.914237      -28.914237   1.000000   1.000000
      2        -27.734489      -27.734489   1.000000   1.000000
      3        -16.916656      -16.916656   1.000000   1.000000
      4        -15.180393      -15.180393   1.000000   1.000000
      5         -9.910240       -9.910240   1.000000   1.000000
      6         -9.695399       -9.695399   1.000000   1.000000
      7         -9.653034       -9.653034   1.000000   1.000000
      8         -8.841227       -8.841227   1.000000   1.000000
      9         -7.757320       -7.757320   1.000000   1.000000
     10         -7.737895       -7.737895   1.000000   1.000000
     11         -3.321518       -3.321518   1.000000   1.000000
     12         -3.211243       -3.211243   1.000000   1.000000
     13         -1.068351       -1.068351   0.000000   0.000000
     14         -0.950399       -0.950399   0.000000   0.000000
     15          4.616474        4.616474   0.000000   0.000000
     16          6.434377        6.434377   0.000000   0.000000
     17          7.572843        7.572843   0.000000   0.000000
     18          8.333841        8.333841   0.000000   0.000000
     19          9.183494        9.183494   0.000000   0.000000
     20         10.465357       10.465357   0.000000   0.000000
     21         11.189799       11.189799   0.000000   0.000000
     22         12.891863       12.891863   0.000000   0.000000
     23         13.192071       13.192071   0.000000   0.000000
     24         14.011058       14.011058   0.000000   0.000000
     25         14.759700       14.759700   0.000000   0.000000
     26         16.130395       16.130395   0.000000   0.000000
     27         16.546432       16.546432   0.000000   0.000000
     28         16.713271       16.713271   0.000000   0.000000
     29         17.706134       17.706134   0.000000   0.000000
     30         19.421149       19.421149   0.000000   0.000000
     31         19.694899       19.694899   0.000000   0.000000
     32         19.795402       19.795402   0.000000   0.000000
     33         21.815705       21.815705   0.000000   0.000000
     34         23.308776       23.308776   0.000000   0.000000
     35         23.941999       23.941999   0.000000   0.000000
     36         25.133006       25.133006   0.000000   0.000000
     37         25.441092       25.441092   0.000000   0.000000
     38         26.301550       26.301550   0.000000   0.000000
     39         26.601079       26.601079   0.000000   0.000000
     40         27.148297       27.148297   0.000000   0.000000
     41         27.665719       27.665719   0.000000   0.000000
     42         27.877656       27.877656   0.000000   0.000000
     43         29.612719       29.612719   0.000000   0.000000
     44         30.098176       30.098176   0.000000   0.000000
     45         30.820240       30.820240   0.000000   0.000000
     46         31.803729       31.803729   0.000000   0.000000
     47         32.106064       32.106064   0.000000   0.000000
     48         32.889441       32.889441   0.000000   0.000000
 
  0.3750000E+00  0.1051299E-31  0.0000000E+00  0.3906250E-02
      1        -28.909589      -28.909589   1.000000   1.000000
      2        -27.737267      -27.737267   1.000000   1.000000
      3        -16.919473      -16.919473   1.000000   1.000000
      4        -15.194653      -15.194653   1.000000   1.000000
      5         -9.854146       -9.854146   1.000000   1.000000
      6         -9.728741       -9.728741   1.000000   1.000000
      7         -9.608782       -9.608782   1.000000   1.000000
      8         -8.813113       -8.813113   1.000000   1.000000
      9         -7.839654       -7.839654   1.000000   1.000000
     10         -7.790929       -7.790929   1.000000   1.000000
     11         -3.296715       -3.296715   1.000000   1.000000
     12         -3.205431       -3.205431   1.000000   1.000000
     13         -1.108493       -1.108493   0.000000   0.000000
     14         -0.979824       -0.979824   0.000000   0.000000
     15          5.066930        5.066930   0.000000   0.000000
     16          6.057202        6.057202   0.000000   0.000000
     17          7.540459        7.540459   0.000000   0.000000
     18          8.390116        8.390116   0.000000   0.000000
     19          9.459374        9.459374   0.000000   0.000000
     20         10.040153       10.040153   0.000000   0.000000
     21         11.603824       11.603824   0.000000   0.000000
     22         12.701213       12.701213   0.000000   0.000000
     23         13.882558       13.882558   0.000000   0.000000
     24         13.890168       13.890168   0.000000   0.000000
     25         15.242699       15.242699   0.000000   0.000000
     26         15.926287       15.926287   0.000000   0.000000
     27         16.175766       16.175766   0.000000   0.000000
     28         16.258975       16.258975   0.000000   0.000000
     29         18.175313       18.175313   0.000000   0.000000
     30         18.409270       18.409270   0.000000   0.000000
     31         18.983215       18.983215   0.000000   0.000000
     32         20.472608       20.472608   0.000000   0.000000
     33         22.161421       22.161421   0.000000   0.000000
     34         23.823738       23.823738   0.000000   0.000000
     35         24.467880       24.467880   0.000000   0.000000
     36         24.678994       24.678994   0.000000   0.000000
     37         25.810127       25.810127   0.000000   0.000000
     38         25.818351       25.818351   0.000000   0.000000
     39         27.270870       27.270870   0.000000   0.000000
     40         27.400735       27.400735   0.000000   0.000000
     41         27.487399       27.487399   0.000000   0.000000
     42         27.878583       27.878583   0.000000   0.000000
     43         28.329841       28.329841   0.000000   0.000000
     44         30.799366       30.799366   0.000000   0.000000
     45         31.225059       31.225059   0.000000   0.000000
     46         31.291867       31.291867   0.000000   0.000000
     47         31.986496       31.986493   0.000000   0.000000
     48         32.126424       32.126338   0.000000   0.000000
 
  0.5000000E+00  0.1196299E-31  0.0000000E+00  0.1953125E-02
      1        -28.907700      -28.907700   1.000000   1.000000
      2        -27.738461      -27.738461   1.000000   1.000000
      3        -16.920588      -16.920588   1.000000   1.000000
      4        -15.200500      -15.200500   1.000000   1.000000
      5         -9.817522       -9.817522   1.000000   1.000000
      6         -9.755953       -9.755953   1.000000   1.000000
      7         -9.589694       -9.589694   1.000000   1.000000
      8         -8.800046       -8.800046   1.000000   1.000000
      9         -7.875027       -7.875027   1.000000   1.000000
     10         -7.813665       -7.813665   1.000000   1.000000
     11         -3.285960       -3.285960   1.000000   1.000000
     12         -3.202945       -3.202945   1.000000   1.000000
     13         -1.125517       -1.125517   0.000000   0.000000
     14         -0.992045       -0.992045   0.000000   0.000000
     15          5.419664        5.419664   0.000000   0.000000
     16          5.734837        5.734837   0.000000   0.000000
     17          7.595053        7.595053   0.000000   0.000000
     18          8.301453        8.301453   0.000000   0.000000
     19          9.740721        9.740721   0.000000   0.000000
     20          9.790665        9.790665   0.000000   0.000000
     21         12.039667       12.039667   0.000000   0.000000
     22         12.226131       12.226131   0.000000   0.000000
     23         14.205362       14.205362   0.000000   0.000000
     24         14.312831       14.312831   0.000000   0.000000
     25         15.272201       15.272201   0.000000   0.000000
     26         15.395589       15.395589   0.000000   0.000000
     27         15.962855       15.962855   0.000000   0.000000
     28         16.065137       16.065137   0.000000   0.000000
     29         17.969980       17.969980   0.000000   0.000000
     30         18.075581       18.075581   0.000000   0.000000
     31         20.993275       20.993275   0.000000   0.000000
     32         21.078332       21.078332   0.000000   0.000000
     33         21.343371       21.343371   0.000000   0.000000
     34         21.366608       21.366608   0.000000   0.000000
     35         25.086681       25.086681   0.000000   0.000000
     36         25.252141       25.252141   0.000000   0.000000
     37         26.031510       26.031510   0.000000   0.000000
     38         26.105671       26.105671   0.000000   0.000000
     39         27.609034       27.609034   0.000000   0.000000
     40         27.792284       27.792284   0.000000   0.000000
     41         28.205273       28.205273   0.000000   0.000000
     42         28.250310       28.250310   0.000000   0.000000
     43         28.340767       28.340767   0.000000   0.000000
     44         28.363059       28.363059   0.000000   0.000000
     45         30.790230       30.790230   0.000000   0.000000
     46         31.014774       31.014774   0.000000   0.000000
     47         32.286948       32.286948   0.000000   0.000000
     48         32.390917       32.390917   0.000000   0.000000
 
  0.0000000E+00  0.1250000E+00  0.0000000E+00  0.3906250E-02
      1        -28.918953      -28.918953   1.000000   1.000000
      2        -27.731921      -27.731921   1.000000   1.000000
      3        -16.910139      -16.910139   1.000000   1.000000
      4        -15.161409      -15.161409   1.000000   1.000000
      5         -9.963679       -9.963679   1.000000   1.000000
      6         -9.723559       -9.723559   1.000000   1.000000
      7         -9.652142       -9.652142   1.000000   1.000000
      8         -8.868816       -8.868816   1.000000   1.000000
      9         -7.696115       -7.696115   1.000000   1.000000
     10         -7.665090       -7.665090   1.000000   1.000000
     11         -3.344002       -3.344002   1.000000   1.000000
     12         -3.222855       -3.222855   1.000000   1.000000
     13         -1.026183       -1.026183   0.000000   0.000000
     14         -0.930955       -0.930955   0.000000   0.000000
     15          4.295266        4.295266   0.000000   0.000000
     16          6.862165        6.862165   0.000000   0.000000
     17          7.674743        7.674743   0.000000   0.000000
     18          8.007844        8.007844   0.000000   0.000000
     19          9.060994        9.060994   0.000000   0.000000
     20         10.850737       10.850737   0.000000   0.000000
     21         11.826970       11.826970   0.000000   0.000000
     22         12.379474       12.379474   0.000000   0.000000
     23         12.431328       12.431328   0.000000   0.000000
     24         13.610205       13.610205   0.000000   0.000000
     25         14.557975       14.557975   0.000000   0.000000
     26         15.315162       15.315162   0.000000   0.000000
     27         16.438695       16.438695   0.000000   0.000000
     28         17.541060       17.541060   0.000000   0.000000
     29         18.745904       18.745904   0.000000   0.000000
     30         19.465429       19.465429   0.000000   0.000000
     31         20.564224       20.564224   0.000000   0.000000
     32         20.698957       20.698957   0.000000   0.000000
     33         21.169504       21.169504   0.000000   0.000000
     34         22.040253       22.040253   0.000000   0.000000
     35         23.905883       23.905883   0.000000   0.000000
     36         24.446506       24.446506   0.000000   0.000000
     37         25.328874       25.328874   0.000000   0.000000
     38         25.966220       25.966220   0.000000   0.000000
     39         26.838869       26.838869   0.000000   0.000000
     40         27.170625       27.170625   0.000000   0.000000
     41         27.984614       27.984614   0.000000   0.000000
     42         28.222072       28.222072   0.000000   0.000000
     43         30.362684       30.362684   0.000000   0.000000
     44         30.730618       30.730618   0.000000   0.000000
     45         32.101969       32.101969   0.000000   0.000000
     46         32.425796       32.425796   0.000000   0.000000
     47         32.605492       32.605492   0.000000   0.000000
     48         33.302558       33.302562   0.000000   0.000000
 
  0.1250000E+00  0.1250000E+00  0.0000000E+00  0.7812500E-02
      1        -28.917316      -28.917316   1.000000   1.000000
      2        -27.732835      -27.732835   1.000000   1.000000
      3        -16.911532      -16.911532   1.000000   1.000000
      4        -15.166902      -15.166902   1.000000   1.000000
      5         -9.947948       -9.947948   1.000000   1.000000
      6         -9.722753       -9.722753   1.000000   1.000000
      7         -9.650932       -9.650932   1.000000   1.000000
      8         -8.860373       -8.860373   1.000000   1.000000
      9         -7.743939       -7.743939   1.000000   1.000000
     10         -7.656240       -7.656240   1.000000   1.000000
     11         -3.341360       -3.341360   1.000000   1.000000
     12         -3.220482       -3.220482   1.000000   1.000000
     13         -1.042747       -1.042747   0.000000   0.000000
     14         -0.933450       -0.933450   0.000000   0.000000
     15          4.414695        4.414695   0.000000   0.000000
     16          6.735795        6.735795   0.000000   0.000000
     17          7.688713        7.688713   0.000000   0.000000
     18          8.072388        8.072388   0.000000   0.000000
     19          9.114275        9.114275   0.000000   0.000000
     20         10.784345       10.784345   0.000000   0.000000
     21         11.442079       11.442079   0.000000   0.000000
     22         12.137673       12.137673   0.000000   0.000000
     23         13.453485       13.453485   0.000000   0.000000
     24         13.687346       13.687346   0.000000   0.000000
     25         14.318362       14.318362   0.000000   0.000000
     26         15.455685       15.455685   0.000000   0.000000
     27         16.097587       16.097587   0.000000   0.000000
     28         17.548937       17.548937   0.000000   0.000000
     29         18.977754       18.977754   0.000000   0.000000
     30         19.762849       19.762849   0.000000   0.000000
     31         20.167954       20.167954   0.000000   0.000000
     32         20.829178       20.829178   0.000000   0.000000
     33         20.972651       20.972651   0.000000   0.000000
     34         21.374412       21.374412   0.000000   0.000000
     35         23.937060       23.937060   0.000000   0.000000
     36         24.768351       24.768351   0.000000   0.000000
     37         25.673897       25.673897   0.000000   0.000000
     38         26.051510       26.051510   0.000000   0.000000
     39         26.937255       26.937255   0.000000   0.000000
     40         27.223045       27.223045   0.000000   0.000000
     41         28.385127       28.385127   0.000000   0.000000
     42         28.613442       28.613442   0.000000   0.000000
     43         30.361974       30.361974   0.000000   0.000000
     44         30.601601       30.601601   0.000000   0.000000
     45         30.875268       30.875268   0.000000   0.000000
     46         31.148985       31.148985   0.000000   0.000000
     47         32.331081       32.331081   0.000000   0.000000
     48         32.805367       32.805367   0.000000   0.000000
 
  0.2500000E+00  0.1250000E+00  0.0000000E+00  0.7812500E-02
      1        -28.913197      -28.913197   1.000000   1.000000
      2        -27.735013      -27.735013   1.000000   1.000000
      3        -16.914842      -16.914842   1.000000   1.000000
      4        -15.180208      -15.180208   1.000000   1.000000
      5         -9.906650       -9.906650   1.000000   1.000000
      6         -9.727423       -9.727423   1.000000   1.000000
      7         -9.644241       -9.644241   1.000000   1.000000
      8         -8.840582       -8.840582   1.000000   1.000000
      9         -7.809482       -7.809482   1.000000   1.000000
     10         -7.684426       -7.684426   1.000000   1.000000
     11         -3.330988       -3.330988   1.000000   1.000000
     12         -3.218559       -3.218559   1.000000   1.000000
     13         -1.073998       -1.073998   0.000000   0.000000
     14         -0.948154       -0.948154   0.000000   0.000000
     15          4.736588        4.736588   0.000000   0.000000
     16          6.457440        6.457440   0.000000   0.000000
     17          7.595439        7.595439   0.000000   0.000000
     18          8.343706        8.343706   0.000000   0.000000
     19          9.279333        9.279333   0.000000   0.000000
     20         10.278630       10.278630   0.000000   0.000000
     21         11.269127       11.269127   0.000000   0.000000
     22         12.639516       12.639516   0.000000   0.000000
     23         13.293733       13.293733   0.000000   0.000000
     24         13.924886       13.924886   0.000000   0.000000
     25         14.782604       14.782604   0.000000   0.000000
     26         15.684770       15.684770   0.000000   0.000000
     27         16.041902       16.041902   0.000000   0.000000
     28         17.587985       17.587985   0.000000   0.000000
     29         18.253971       18.253971   0.000000   0.000000
     30         19.337080       19.337080   0.000000   0.000000
     31         19.986138       19.986138   0.000000   0.000000
     32         20.175316       20.175316   0.000000   0.000000
     33         21.293271       21.293271   0.000000   0.000000
     34         22.181140       22.181140   0.000000   0.000000
     35         24.191224       24.191224   0.000000   0.000000
     36         24.821876       24.821876   0.000000   0.000000
     37         25.792449       25.792449   0.000000   0.000000
     38         26.501964       26.501964   0.000000   0.000000
     39         27.398244       27.398244   0.000000   0.000000
     40         27.547090       27.547090   0.000000   0.000000
     41         27.895869       27.895869   0.000000   0.000000
     42         28.256460       28.256460   0.000000   0.000000
     43         29.641124       29.641124   0.000000   0.000000
     44         30.187166       30.187166   0.000000   0.000000
     45         30.609762       30.609762   0.000000   0.000000
     46         30.694638       30.694638   0.000000   0.000000
     47         31.315807       31.315807   0.000000   0.000000
     48         32.265997       32.265997   0.000000   0.000000
 
  0.3750000E+00  0.1250000E+00  0.0000000E+00  0.7812500E-02
      1        -28.909083      -28.909083   1.000000   1.000000
      2        -27.737165      -27.737165   1.000000   1.000000
      3        -16.918212      -16.918212   1.000000   1.000000
      4        -15.193585      -15.193585   1.000000   1.000000
      5         -9.854370       -9.854370   1.000000   1.000000
      6         -9.748034       -9.748034   1.000000   1.000000
      7         -9.631650       -9.631650   1.000000   1.000000
      8         -8.822329       -8.822329   1.000000   1.000000
      9         -7.842726       -7.842726   1.000000   1.000000
     10         -7.743833       -7.743833   1.000000   1.000000
     11         -3.313124       -3.313124   1.000000   1.000000
     12         -3.223879       -3.223879   1.000000   1.000000
     13         -1.095357       -1.095357   0.000000   0.000000
     14         -0.972583       -0.972583   0.000000   0.000000
     15          5.162390        5.162390   0.000000   0.000000
     16          6.105957        6.105957   0.000000   0.000000
     17          7.589022        7.589022   0.000000   0.000000
     18          8.454921        8.454921   0.000000   0.000000
     19          9.535851        9.535851   0.000000   0.000000
     20          9.931979        9.931979   0.000000   0.000000
     21         11.329397       11.329397   0.000000   0.000000
     22         12.159707       12.159707   0.000000   0.000000
     23         14.048416       14.048416   0.000000   0.000000
     24         14.116862       14.116862   0.000000   0.000000
     25         14.968342       14.968342   0.000000   0.000000
     26         15.544845       15.544845   0.000000   0.000000
     27         16.625334       16.625334   0.000000   0.000000
     28         16.847159       16.847159   0.000000   0.000000
     29         18.150433       18.150433   0.000000   0.000000
     30         18.994818       18.994818   0.000000   0.000000
     31         19.084612       19.084612   0.000000   0.000000
     32         20.663977       20.663977   0.000000   0.000000
     33         21.606464       21.606464   0.000000   0.000000
     34         23.448506       23.448506   0.000000   0.000000
     35         24.342007       24.342007   0.000000   0.000000
     36         24.736531       24.736531   0.000000   0.000000
     37         25.115844       25.115844   0.000000   0.000000
     38         26.178472       26.178472   0.000000   0.000000
     39         26.639731       26.639731   0.000000   0.000000
     40         27.992391       27.992391   0.000000   0.000000
     41         28.215326       28.215326   0.000000   0.000000
     42         28.453991       28.453991   0.000000   0.000000
     43         28.703299       28.703299   0.000000   0.000000
     44         30.508785       30.508785   0.000000   0.000000
     45         30.584449       30.584449   0.000000   0.000000
     46         30.876136       30.876136   0.000000   0.000000
     47         31.324416       31.324416   0.000000   0.000000
     48         31.417511       31.417511   0.000000   0.000000
 
  0.5000000E+00  0.1250000E+00  0.0000000E+00  0.3906250E-02
      1        -28.907326      -28.907326   1.000000   1.000000
      2        -27.738014      -27.738014   1.000000   1.000000
      3        -16.919558      -16.919558   1.000000   1.000000
      4        -15.199100      -15.199100   1.000000   1.000000
      5         -9.819119       -9.819119   1.000000   1.000000
      6         -9.771438       -9.771438   1.000000   1.000000
      7         -9.624844       -9.624844   1.000000   1.000000
      8         -8.815537       -8.815537   1.000000   1.000000
      9         -7.837625       -7.837625   1.000000   1.000000
     10         -7.786738       -7.786738   1.000000   1.000000
     11         -3.301912       -3.301912   1.000000   1.000000
     12         -3.229807       -3.229807   1.000000   1.000000
     13         -1.101106       -1.101106   0.000000   0.000000
     14         -0.985751       -0.985751   0.000000   0.000000
     15          5.483820        5.483820   0.000000   0.000000
     16          5.817339        5.817339   0.000000   0.000000
     17          7.659704        7.659704   0.000000   0.000000
     18          8.357955        8.357955   0.000000   0.000000
     19          9.787720        9.787720   0.000000   0.000000
     20          9.794546        9.794546   0.000000   0.000000
     21         11.530693       11.530693   0.000000   0.000000
     22         11.652497       11.652497   0.000000   0.000000
     23         14.650121       14.650121   0.000000   0.000000