       N       E                     dE             d eps       ncg     rms          rms(c)
DAV:   1    -0.198058607103E+02   -0.19806E+02   -0.15596E-05 42816   0.110E-02    0.327E-03
DAV:   2    -0.198058604705E+02    0.23982E-06   -0.79068E-07 20832   0.223E-03
   1 F= -.19805860E+02 E0= -.19805860E+02  d E =-.761506E-26  mag=     0.0000
       N       E                     dE             ncg
DAV:   1    -0.415749131532E+05   -0.14441E+06    32688
DAV:   2    -0.505679858567E+05   -0.89931E+04    48864
DAV:   3    -0.505932144693E+05   -0.25229E+02    32784
DAV:   4    -0.505932561945E+05   -0.41725E-01    64176
DAV:   5    -0.505932561948E+05   -0.32930E-06    32784
       N       E                     dE             ncg
DAV:   1     0.931287623695E+05   -0.14089E+05     4992
DAV:   2     0.917237044391E+05   -0.14051E+04     7488
DAV:   3     0.917196092072E+05   -0.40952E+01     4992
DAV:   4     0.917196025345E+05   -0.66727E-02     9792
DAV:   5     0.917196025345E+05   -0.61817E-07     4992
