   8   8   0   0
  0.2964981E+02  0.6190190E-09  0.6190190E-09  0.6190190E-09  0.5000000E-15
  1.000000000000000E-004
  CAR 
 N                                       
     13.70987573    -27.43228768  301     -7.11834450      1.00000000
    -27.432  0.0000E+00  0.0000E+00
    -27.295  0.0000E+00  0.0000E+00
    -27.158  0.0000E+00  0.0000E+00
    -27.021  0.0000E+00  0.0000E+00
    -26.884  0.0000E+00  0.0000E+00
    -26.747  0.0000E+00  0.0000E+00
    -26.609  0.0000E+00  0.0000E+00
    -26.472  0.0000E+00  0.0000E+00
    -26.335  0.0000E+00  0.0000E+00
    -26.198  0.0000E+00  0.0000E+00
    -26.061  0.0000E+00  0.0000E+00
    -25.924  0.0000E+00  0.0000E+00
    -25.787  0.6120E-09  0.8393E-10
    -25.649  0.1242E+00  0.1704E-01
    -25.512  0.4884E+02  0.6715E+01
    -25.375  0.9371E+01  0.8000E+01
    -25.238  0.3591E-04  0.8000E+01
    -25.101  0.0000E+00  0.8000E+01
    -24.964  0.0000E+00  0.8000E+01
    -24.827  0.0000E+00  0.8000E+01
    -24.689  0.0000E+00  0.8000E+01
    -24.552  0.0000E+00  0.8000E+01
    -24.415  0.0000E+00  0.8000E+01
    -24.278  0.0000E+00  0.8000E+01
    -24.141  0.0000E+00  0.8000E+01
    -24.004  0.0000E+00  0.8000E+01
    -23.867  0.0000E+00  0.8000E+01
    -23.729  0.0000E+00  0.8000E+01
    -23.592  0.0000E+00  0.8000E+01
    -23.455  0.0000E+00  0.8000E+01
    -23.318  0.0000E+00  0.8000E+01
    -23.181  0.0000E+00  0.8000E+01
    -23.044  0.0000E+00  0.8000E+01
    -22.907  0.0000E+00  0.8000E+01
    -22.770  0.0000E+00  0.8000E+01
    -22.632  0.0000E+00  0.8000E+01
    -22.495  0.0000E+00  0.8000E+01
    -22.358  0.0000E+00  0.8000E+01
    -22.221  0.0000E+00  0.8000E+01
    -22.084  0.0000E+00  0.8000E+01
    -21.947  0.0000E+00  0.8000E+01
    -21.810  0.0000E+00  0.8000E+01
    -21.672  0.0000E+00  0.8000E+01
    -21.535  0.0000E+00  0.8000E+01
    -21.398  0.0000E+00  0.8000E+01
    -21.261  0.0000E+00  0.8000E+01
    -21.124  0.0000E+00  0.8000E+01
    -20.987  0.0000E+00  0.8000E+01
    -20.850  0.0000E+00  0.8000E+01
    -20.712  0.0000E+00  0.8000E+01
    -20.575  0.0000E+00  0.8000E+01
    -20.438  0.0000E+00  0.8000E+01
    -20.301  0.0000E+00  0.8000E+01
    -20.164  0.0000E+00  0.8000E+01
    -20.027  0.0000E+00  0.8000E+01
    -19.890  0.0000E+00  0.8000E+01
    -19.752  0.0000E+00  0.8000E+01
    -19.615  0.0000E+00  0.8000E+01
    -19.478  0.0000E+00  0.8000E+01
    -19.341  0.0000E+00  0.8000E+01
    -19.204  0.0000E+00  0.8000E+01
    -19.067  0.0000E+00  0.8000E+01
    -18.930  0.0000E+00  0.8000E+01
    -18.792  0.0000E+00  0.8000E+01
    -18.655  0.0000E+00  0.8000E+01
    -18.518  0.0000E+00  0.8000E+01
    -18.381  0.0000E+00  0.8000E+01
    -18.244  0.0000E+00  0.8000E+01
    -18.107  0.0000E+00  0.8000E+01
    -17.970  0.0000E+00  0.8000E+01
    -17.832  0.0000E+00  0.8000E+01
    -17.695  0.0000E+00  0.8000E+01
    -17.558  0.0000E+00  0.8000E+01
    -17.421  0.0000E+00  0.8000E+01
    -17.284  0.0000E+00  0.8000E+01
    -17.147  0.0000E+00  0.8000E+01
    -17.010  0.0000E+00  0.8000E+01
    -16.872  0.0000E+00  0.8000E+01
    -16.735  0.0000E+00  0.8000E+01
    -16.598  0.0000E+00  0.8000E+01
    -16.461  0.0000E+00  0.8000E+01
    -16.324  0.0000E+00  0.8000E+01
    -16.187  0.0000E+00  0.8000E+01
    -16.050  0.0000E+00  0.8000E+01
    -15.912  0.0000E+00  0.8000E+01
    -15.775  0.0000E+00  0.8000E+01
    -15.638  0.0000E+00  0.8000E+01
    -15.501  0.0000E+00  0.8000E+01
    -15.364  0.0000E+00  0.8000E+01
    -15.227  0.0000E+00  0.8000E+01
    -15.090  0.0000E+00  0.8000E+01
    -14.952  0.0000E+00  0.8000E+01
    -14.815  0.0000E+00  0.8000E+01
    -14.678  0.0000E+00  0.8000E+01
    -14.541  0.0000E+00  0.8000E+01
    -14.404  0.0000E+00  0.8000E+01
    -14.267  0.0000E+00  0.8000E+01
    -14.130  0.0000E+00  0.8000E+01
    -13.993  0.0000E+00  0.8000E+01
    -13.855  0.0000E+00  0.8000E+01
    -13.718  0.0000E+00  0.8000E+01
    -13.581  0.0000E+00  0.8000E+01
    -13.444  0.0000E+00  0.8000E+01
    -13.307  0.0000E+00  0.8000E+01
    -13.170  0.0000E+00  0.8000E+01
    -13.033  0.0000E+00  0.8000E+01
    -12.895  0.0000E+00  0.8000E+01
    -12.758  0.0000E+00  0.8000E+01
    -12.621  0.0000E+00  0.8000E+01
    -12.484  0.0000E+00  0.8000E+01
    -12.347  0.0000E+00  0.8000E+01
    -12.210  0.0000E+00  0.8000E+01
    -12.073  0.0000E+00  0.8000E+01
    -11.935  0.0000E+00  0.8000E+01
    -11.798  0.0000E+00  0.8000E+01
    -11.661  0.0000E+00  0.8000E+01
    -11.524  0.0000E+00  0.8000E+01
    -11.387  0.0000E+00  0.8000E+01
    -11.250  0.0000E+00  0.8000E+01
    -11.113  0.7250E-05  0.8000E+01
    -10.975  0.4959E+01  0.8680E+01
    -10.838  0.5259E+02  0.1589E+02
    -10.701  0.7820E+00  0.1600E+02
    -10.564  0.3834E-06  0.1600E+02
    -10.427  0.0000E+00  0.1600E+02
    -10.290  0.0000E+00  0.1600E+02
    -10.153  0.0000E+00  0.1600E+02
    -10.015  0.0000E+00  0.1600E+02
     -9.878  0.0000E+00  0.1600E+02
     -9.741  0.0000E+00  0.1600E+02
     -9.604  0.0000E+00  0.1600E+02
     -9.467  0.0000E+00  0.1600E+02
     -9.330  0.0000E+00  0.1600E+02
     -9.193  0.7229E-06  0.1600E+02
     -9.055  0.1365E+01  0.1619E+02
     -8.918  0.5190E+02  0.2331E+02
     -8.781  0.5902E+02  0.3140E+02
     -8.644  0.4383E+01  0.3200E+02
     -8.507  0.1516E-04  0.3200E+02
     -8.370  0.0000E+00  0.3200E+02
     -8.233  0.0000E+00  0.3200E+02
     -8.095  0.3998E-07  0.3200E+02
     -7.958  0.1934E-01  0.3200E+02
     -7.821  0.1246E+01  0.3217E+02
     -7.684  0.4903E+01  0.3285E+02
     -7.547  0.1646E+02  0.3510E+02
     -7.410  0.3368E+02  0.3972E+02
     -7.273  0.2028E+01  0.4000E+02
     -7.135  0.5892E-05  0.4000E+02
     -6.998  0.0000E+00  0.4000E+02
     -6.861  0.0000E+00  0.4000E+02
     -6.724  0.0000E+00  0.4000E+02
     -6.587  0.0000E+00  0.4000E+02
     -6.450  0.0000E+00  0.4000E+02
     -6.313  0.0000E+00  0.4000E+02
     -6.176  0.0000E+00  0.4000E+02
     -6.038  0.0000E+00  0.4000E+02
     -5.901  0.0000E+00  0.4000E+02
     -5.764  0.0000E+00  0.4000E+02
     -5.627  0.0000E+00  0.4000E+02
     -5.490  0.0000E+00  0.4000E+02
     -5.353  0.0000E+00  0.4000E+02
     -5.216  0.0000E+00  0.4000E+02
     -5.078  0.0000E+00  0.4000E+02
     -4.941  0.0000E+00  0.4000E+02
     -4.804  0.0000E+00  0.4000E+02
     -4.667  0.0000E+00  0.4000E+02
     -4.530  0.0000E+00  0.4000E+02
     -4.393  0.0000E+00  0.4000E+02
     -4.256  0.0000E+00  0.4000E+02
     -4.118  0.0000E+00  0.4000E+02
     -3.981  0.0000E+00  0.4000E+02
     -3.844  0.0000E+00  0.4000E+02
     -3.707  0.0000E+00  0.4000E+02
     -3.570  0.0000E+00  0.4000E+02
     -3.433  0.0000E+00  0.4000E+02
     -3.296  0.0000E+00  0.4000E+02
     -3.158  0.0000E+00  0.4000E+02
     -3.021  0.0000E+00  0.4000E+02
     -2.884  0.0000E+00  0.4000E+02
     -2.747  0.0000E+00  0.4000E+02
     -2.610  0.0000E+00  0.4000E+02
     -2.473  0.0000E+00  0.4000E+02
     -2.336  0.0000E+00  0.4000E+02
     -2.198  0.0000E+00  0.4000E+02
     -2.061  0.0000E+00  0.4000E+02
     -1.924  0.0000E+00  0.4000E+02
     -1.787  0.0000E+00  0.4000E+02
     -1.650  0.0000E+00  0.4000E+02
     -1.513  0.0000E+00  0.4000E+02
     -1.376  0.0000E+00  0.4000E+02
     -1.238  0.0000E+00  0.4000E+02
     -1.101  0.0000E+00  0.4000E+02
     -0.964  0.0000E+00  0.4000E+02
     -0.827  0.0000E+00  0.4000E+02
     -0.690  0.0000E+00  0.4000E+02
     -0.553  0.0000E+00  0.4000E+02
     -0.416  0.0000E+00  0.4000E+02
     -0.278  0.0000E+00  0.4000E+02
     -0.141  0.5610E-10  0.4000E+02
     -0.004  0.2883E-02  0.4000E+02
      0.133  0.2148E+01  0.4030E+02
      0.270  0.1307E+02  0.4209E+02
      0.407  0.1836E+02  0.4461E+02
      0.544  0.3122E+02  0.4889E+02
      0.682  0.4358E+02  0.5486E+02
      0.819  0.8201E+01  0.5599E+02
      0.956  0.8247E-01  0.5600E+02
      1.093  0.4845E-07  0.5600E+02
      1.230  0.0000E+00  0.5600E+02
      1.367  0.0000E+00  0.5600E+02
      1.504  0.0000E+00  0.5600E+02
      1.642  0.0000E+00  0.5600E+02
      1.779  0.0000E+00  0.5600E+02
      1.916  0.0000E+00  0.5600E+02
      2.053  0.0000E+00  0.5600E+02
      2.190  0.0000E+00  0.5600E+02
      2.327  0.0000E+00  0.5600E+02
      2.464  0.3254E-14  0.5600E+02
      2.601  0.8971E-05  0.5600E+02
      2.739  0.1006E+00  0.5601E+02
      2.876  0.9878E+00  0.5615E+02
      3.013  0.1591E+01  0.5637E+02
      3.150  0.2089E+01  0.5665E+02
      3.287  0.2297E+01  0.5697E+02
      3.424  0.2108E+01  0.5726E+02
      3.561  0.3355E+01  0.5772E+02
      3.699  0.2081E+01  0.5800E+02
      3.836  0.3146E+01  0.5843E+02
      3.973  0.3709E+01  0.5894E+02
      4.110  0.3951E+01  0.5949E+02
      4.247  0.2952E+01  0.5989E+02
      4.384  0.5290E+01  0.6062E+02
      4.521  0.3997E+01  0.6116E+02
      4.659  0.3613E+01  0.6166E+02
      4.796  0.3372E+01  0.6212E+02
      4.933  0.2631E+01  0.6248E+02
      5.070  0.3339E+01  0.6294E+02
      5.207  0.2990E+01  0.6335E+02
      5.344  0.2982E+01  0.6376E+02
      5.481  0.3710E+01  0.6427E+02
      5.619  0.5096E+01  0.6497E+02
      5.756  0.6508E+01  0.6586E+02
      5.893  0.4425E+01  0.6647E+02
      6.030  0.5099E+01  0.6717E+02
      6.167  0.4997E+01  0.6785E+02
      6.304  0.4698E+01  0.6850E+02
      6.441  0.4513E+01  0.6911E+02
      6.579  0.7438E+01  0.7013E+02
      6.716  0.5267E+01  0.7086E+02
      6.853  0.7391E+01  0.7187E+02
      6.990  0.4155E+01  0.7244E+02
      7.127  0.2002E+01  0.7271E+02
      7.264  0.6034E+01  0.7354E+02
      7.401  0.5258E+01  0.7426E+02
      7.539  0.3231E+01  0.7471E+02
      7.676  0.4119E+01  0.7527E+02
      7.813  0.3362E+01  0.7573E+02
      7.950  0.3800E+01  0.7625E+02
      8.087  0.2503E+01  0.7660E+02
      8.224  0.4368E+01  0.7720E+02
      8.361  0.2931E+01  0.7760E+02
      8.499  0.3030E+01  0.7801E+02
      8.636  0.5233E+01  0.7873E+02
      8.773  0.4939E+01  0.7941E+02
      8.910  0.5756E+01  0.8020E+02
      9.047  0.4042E+01  0.8075E+02
      9.184  0.5987E+01  0.8157E+02
      9.321  0.8383E+01  0.8272E+02
      9.459  0.7419E+01  0.8374E+02
      9.596  0.5786E+01  0.8453E+02
      9.733  0.9531E+01  0.8584E+02
      9.870  0.6158E+01  0.8668E+02
     10.007  0.5429E+01  0.8743E+02
     10.144  0.1001E+02  0.8880E+02
     10.281  0.4917E+01  0.8948E+02
     10.419  0.2704E+01  0.8985E+02
     10.556  0.5330E+01  0.9058E+02
     10.693  0.5524E+01  0.9134E+02
     10.830  0.3236E+01  0.9178E+02
     10.967  0.4736E+01  0.9243E+02
     11.104  0.5405E+01  0.9317E+02
     11.241  0.3328E+01  0.9363E+02
     11.378  0.4196E+01  0.9420E+02
     11.516  0.3174E+01  0.9464E+02
     11.653  0.3846E+01  0.9517E+02
     11.790  0.5529E+01  0.9592E+02
     11.927  0.5548E+00  0.9600E+02
     12.064  0.2320E-02  0.9600E+02
     12.201  0.3744E-10  0.9600E+02
     12.338  0.0000E+00  0.9600E+02
     12.476  0.0000E+00  0.9600E+02
     12.613  0.0000E+00  0.9600E+02
     12.750  0.0000E+00  0.9600E+02
     12.887  0.0000E+00  0.9600E+02
     13.024  0.0000E+00  0.9600E+02
     13.161  0.0000E+00  0.9600E+02
     13.298  0.0000E+00  0.9600E+02
     13.436  0.0000E+00  0.9600E+02
     13.573  0.0000E+00  0.9600E+02
     13.710  0.0000E+00  0.9600E+02
