 vasp.6.4.3 19Mar24 (build Jun 26 2024 13:02:28) complex                        
  
 executed on             LinuxIFC date 2025.08.08  18:51:32
 running   48 mpi-ranks, on    4 nodes
 distrk:  each k-point on   48 cores,    1 groups
 distr:  one band on NCORE=   1 cores,   48 groups


--------------------------------------------------------------------------------------------------------


 INCAR:
   ENCUT = 520.0
   IBRION = -1
   ISMEAR = 0
   ISYM = 2
   LCHARG = True
   LWAVE = True
   SIGMA = 0.05
   SYSTEM = N

 POTCAR:  PAW_PBE N 08Apr2002                     
 -----------------------------------------------------------------------------
|                                                                             |
|           W    W    AA    RRRRR   N    N  II  N    N   GGGG   !!!           |
|           W    W   A  A   R    R  NN   N  II  NN   N  G    G  !!!           |
|           W    W  A    A  R    R  N N  N  II  N N  N  G       !!!           |
|           W WW W  AAAAAA  RRRRR   N  N N  II  N  N N  G  GGG   !            |
|           WW  WW  A    A  R   R   N   NN  II  N   NN  G    G                |
|           W    W  A    A  R    R  N    N  II  N    N   GGGG   !!!           |
|                                                                             |
|     For optimal performance we recommend to set                             |
|       NCORE = 2 up to number-of-cores-per-socket                            |
|     NCORE specifies how many cores store one orbital (NPAR=cpu/NCORE).      |
|     This setting can greatly improve the performance of VASP for DFT.       |
|     The default, NCORE=1 might be grossly inefficient on modern             |
|     multi-core architectures or massively parallel machines. Do your        |
|     own testing! More info at https://www.vasp.at/wiki/index.php/NCORE      |
|     Unfortunately you need to use the default for GW and RPA                |
|     calculations (for HF NCORE is supported but not extensively tested      |
|     yet).                                                                   |
|                                                                             |
 -----------------------------------------------------------------------------

 POTCAR:  PAW_PBE N 08Apr2002                     
   VRHFIN =N: s2p3                                                                                  
   LEXCH  = PE                                                                                      
   EATOM  =   264.5486 eV,   19.4438 Ry                                                             
                                                                                                    
   TITEL  = PAW_PBE N 08Apr2002                                                                     
   LULTRA =        F    use ultrasoft PP ?                                                          
   IUNSCR =        1    unscreen: 0-lin 1-nonlin 2-no                                               
   RPACOR =    1.200    partial core radius                                                         
   POMASS =   14.001; ZVAL   =    5.000    mass and valenz                                          
   RCORE  =    1.500    outmost cutoff radius                                                       
   RWIGS  =    1.400; RWIGS  =    0.741    wigner-seitz radius (au A)                               
   ENMAX  =  400.000; ENMIN  =  300.000 eV                                                          
   ICORE  =        2    local potential                                                             
   LCOR   =        T    correct aug charges                                                         
   LPAW   =        T    paw PP                                                                      
   EAUG   =  627.112                                                                                
   DEXC   =    0.000                                                                                
   RMAX   =    1.529    core radius for proj-oper                                                   
   RAUG   =    1.300    factor for augmentation sphere                                              
   RDEP   =    1.514    radius for radial grids                                                     
   RDEPT  =    1.338    core radius for aug-charge                                                  
                                                                                                    
   Atomic configuration                                                                             
    4 entries                                                                                       
     n  l   j            E        occ.                                                              
     1  0  0.50      -384.7179   2.0000                                                             
     2  0  0.50       -18.5828   2.0000                                                             
     2  1  0.50        -7.0898   3.0000                                                             
     3  2  1.50        -6.8029   0.0000                                                             
   Description                                                                                      
     l       E           TYP  RCUT    TYP  RCUT                                                     
     0    -18.5828119     23  1.200                                                                 
     0    -13.5018863     23  1.200                                                                 
     1     -7.0897853     23  1.500                                                                 
     1      9.5240782     23  1.500                                                                 
     2     -6.8029130      7  1.500                                                                 
  local pseudopotential read in
  partial core-charges read in
  partial kinetic energy density read in
  atomic valenz-charges read in
  non local Contribution for L=           0  read in
    real space projection operators read in
  non local Contribution for L=           0  read in
    real space projection operators read in
  non local Contribution for L=           1  read in
    real space projection operators read in
  non local Contribution for L=           1  read in
    real space projection operators read in
    PAW grid and wavefunctions read in
 
   number of l-projection  operators is LMAX  =           4
   number of lm-projection operators is LMMAX =           8
 
PAW_PBE N 08Apr2002                     :
 energy of atom  1       EATOM= -264.5486
 kinetic energy error for atom=    0.0125 (will be added to EATOM!!)
 
 
 POSCAR: N8
  positions in direct lattice
  No initial velocities read in


 exchange-correlation table for PE
   RHO(1)=    0.500       N(1)  =     2000
   RHO(2)=  100.500       N(2)  =     4000
 


--------------------------------------------------------------------------------------------------------


 ion  position               nearest neighbor table
   1  0.052  0.052  0.052-   2 1.11
   2  0.948  0.948  0.948-   1 1.11
   3  0.448  0.948  0.552-   4 1.11
   4  0.552  0.052  0.448-   3 1.11
   5  0.948  0.552  0.448-   6 1.11
   6  0.052  0.448  0.552-   5 1.11
   7  0.552  0.448  0.948-   8 1.11
   8  0.448  0.552  0.052-   7 1.11
 
  LATTYP: Found a simple cubic cell.
 ALAT       =     6.1901900000
  
  Lattice vectors:
  
 A1 = (   6.1901900000,   0.0000000000,   0.0000000000)
 A2 = (   0.0000000000,   6.1901900000,   0.0000000000)
 A3 = (   0.0000000000,   0.0000000000,   6.1901900000)


Analysis of symmetry for initial positions (statically):
=====================================================================
 Subroutine PRICEL returns:
 Original cell was already a primitive cell.
 

 Routine SETGRP: Setting up the symmetry group for a 
 simple cubic supercell.


 Subroutine GETGRP returns: Found 24 space group operations
 (whereof  6 operations were pure point group operations)
 out of a pool of 48 trial point group operations.


The static configuration has the point symmetry S_6 .
 The point group associated with its full space group is T_h .


Analysis of symmetry for dynamics (positions and initial velocities):
=====================================================================
 Subroutine PRICEL returns:
 Original cell was already a primitive cell.
 

 Routine SETGRP: Setting up the symmetry group for a 
 simple cubic supercell.


 Subroutine GETGRP returns: Found 24 space group operations
 (whereof  6 operations were pure point group operations)
 out of a pool of 48 trial point group operations.


The dynamic configuration has the point symmetry S_6 .
 The point group associated with its full space group is T_h .


 Subroutine INISYM returns: Found 24 space group operations
 (whereof  6 operations are pure point group operations),
 and found     1 'primitive' translations


----------------------------------------------------------------------------------------

                                     Primitive cell                                     

  volume of cell :     237.1985

  direct lattice vectors                    reciprocal lattice vectors
     6.190190000  0.000000000  0.000000000     0.161545930 -0.000000000  0.000000000
     0.000000000  6.190190000  0.000000000     0.000000000  0.161545930  0.000000000
     0.000000000  0.000000000  6.190190000    -0.000000000 -0.000000000  0.161545930

  length of vectors
     6.190190000  6.190190000  6.190190000     0.161545930  0.161545930  0.161545930

  position of ions in fractional coordinates (direct lattice)
     0.051890000  0.051890000  0.051890000
     0.948110000  0.948110000  0.948110000
     0.448110000  0.948110000  0.551890000
     0.551890000  0.051890000  0.448110000
     0.948110000  0.551890000  0.448110000
     0.051890000  0.448110000  0.551890000
     0.551890000  0.448110000  0.948110000
     0.448110000  0.551890000  0.051890000

  ion indices of the primitive-cell ions
   primitive index   ion index
                 1           1
                 2           2
                 3           3
                 4           4
                 5           5
                 6           6
                 7           7
                 8           8

----------------------------------------------------------------------------------------

 
 
 KPOINTS: Automatic kpoint scheme                 

Automatic generation of k-mesh.
 Grid dimensions read from file:
 generate k-points for:    8    8    8

 Generating k-lattice:

  Cartesian coordinates                     Fractional coordinates (reciprocal lattice)
     0.020193241 -0.000000000  0.000000000     0.125000000  0.000000000  0.000000000
     0.000000000  0.020193241  0.000000000     0.000000000  0.125000000  0.000000000
    -0.000000000 -0.000000000  0.020193241    -0.000000000 -0.000000000  0.125000000

  Length of vectors
     0.020193241  0.020193241  0.020193241

  Shift w.r.t. Gamma in fractional coordinates (k-lattice)
     0.000000000  0.000000000  0.000000000

 
 Subroutine IBZKPT returns following result:
 ===========================================
 
 Found     45 irreducible k-points:
 
 Following reciprocal coordinates:
            Coordinates               Weight
  0.000000  0.000000  0.000000      1.000000
  0.125000  0.000000  0.000000      6.000000
  0.250000  0.000000  0.000000      6.000000
  0.375000  0.000000  0.000000      6.000000
  0.500000  0.000000  0.000000      3.000000
  0.125000  0.125000  0.000000     12.000000
  0.250000  0.125000  0.000000     12.000000
 -0.125000  0.250000  0.000000     12.000000
  0.375000  0.125000  0.000000     12.000000
 -0.125000  0.375000  0.000000     12.000000
  0.500000  0.125000  0.000000      6.000000
 -0.125000  0.500000  0.000000      6.000000
  0.250000  0.250000  0.000000     12.000000
  0.375000  0.250000  0.000000     12.000000
 -0.250000  0.375000  0.000000     12.000000
  0.500000  0.250000  0.000000      6.000000
 -0.250000  0.500000  0.000000      6.000000
  0.375000  0.375000  0.000000     12.000000
  0.500000  0.375000  0.000000      6.000000
 -0.375000  0.500000  0.000000      6.000000
  0.500000  0.500000  0.000000      3.000000
  0.125000  0.125000  0.125000      8.000000
  0.250000  0.125000  0.125000     24.000000
  0.375000  0.125000  0.125000     24.000000
  0.500000  0.125000  0.125000     12.000000
  0.250000  0.250000  0.125000     24.000000
  0.375000  0.250000  0.125000     24.000000
 -0.250000  0.375000  0.125000     24.000000
  0.500000  0.250000  0.125000     12.000000
 -0.250000  0.500000  0.125000     12.000000
  0.375000  0.375000  0.125000     24.000000
  0.500000  0.375000  0.125000     12.000000
 -0.375000  0.500000  0.125000     12.000000
  0.500000  0.500000  0.125000      6.000000
  0.250000  0.250000  0.250000      8.000000
  0.375000  0.250000  0.250000     24.000000
  0.500000  0.250000  0.250000     12.000000
  0.375000  0.375000  0.250000     24.000000
  0.500000  0.375000  0.250000     12.000000
 -0.375000  0.500000  0.250000     12.000000
  0.500000  0.500000  0.250000      6.000000
  0.375000  0.375000  0.375000      8.000000
  0.500000  0.375000  0.375000     12.000000
  0.500000  0.500000  0.375000      6.000000
  0.500000  0.500000  0.500000      1.000000
 
 Following cartesian coordinates:
            Coordinates               Weight
  0.000000  0.000000  0.000000      1.000000
  0.020193 -0.000000  0.000000      6.000000
  0.040386 -0.000000  0.000000      6.000000
  0.060580 -0.000000  0.000000      6.000000
  0.080773 -0.000000  0.000000      3.000000
  0.020193  0.020193  0.000000     12.000000
  0.040386  0.020193  0.000000     12.000000
 -0.020193  0.040386  0.000000     12.000000
  0.060580  0.020193  0.000000     12.000000
 -0.020193  0.060580  0.000000     12.000000
  0.080773  0.020193  0.000000      6.000000
 -0.020193  0.080773  0.000000      6.000000
  0.040386  0.040386  0.000000     12.000000
  0.060580  0.040386  0.000000     12.000000
 -0.040386  0.060580  0.000000     12.000000
  0.080773  0.040386  0.000000      6.000000
 -0.040386  0.080773  0.000000      6.000000
  0.060580  0.060580  0.000000     12.000000
  0.080773  0.060580  0.000000      6.000000
 -0.060580  0.080773  0.000000      6.000000
  0.080773  0.080773  0.000000      3.000000
  0.020193  0.020193  0.020193      8.000000
  0.040386  0.020193  0.020193     24.000000
  0.060580  0.020193  0.020193     24.000000
  0.080773  0.020193  0.020193     12.000000
  0.040386  0.040386  0.020193     24.000000
  0.060580  0.040386  0.020193     24.000000
 -0.040386  0.060580  0.020193     24.000000
  0.080773  0.040386  0.020193     12.000000
 -0.040386  0.080773  0.020193     12.000000
  0.060580  0.060580  0.020193     24.000000
  0.080773  0.060580  0.020193     12.000000
 -0.060580  0.080773  0.020193     12.000000
  0.080773  0.080773  0.020193      6.000000
  0.040386  0.040386  0.040386      8.000000
  0.060580  0.040386  0.040386     24.000000
  0.080773  0.040386  0.040386     12.000000
  0.060580  0.060580  0.040386     24.000000
  0.080773  0.060580  0.040386     12.000000
 -0.060580  0.080773  0.040386     12.000000
  0.080773  0.080773  0.040386      6.000000
  0.060580  0.060580  0.060580      8.000000
  0.080773  0.060580  0.060580     12.000000
  0.080773  0.080773  0.060580      6.000000
  0.080773  0.080773  0.080773      1.000000
 
 
 Subroutine IBZKPT_HF returns following result:
 ==============================================
 
 Found    512 k-points in 1st BZ
 the following    512 k-points will be used (e.g. in the exchange kernel)
 Following reciprocal coordinates:   # in IRBZ
  0.000000  0.000000  0.000000    0.00195312   1 t-inv F
  0.125000  0.000000  0.000000    0.00195312   2 t-inv F
  0.250000  0.000000  0.000000    0.00195312   3 t-inv F
  0.375000  0.000000  0.000000    0.00195312   4 t-inv F
  0.500000  0.000000  0.000000    0.00195312   5 t-inv F
  0.125000  0.125000  0.000000    0.00195312   6 t-inv F
  0.250000  0.125000  0.000000    0.00195312   7 t-inv F
 -0.125000  0.250000  0.000000    0.00195312   8 t-inv F
  0.375000  0.125000  0.000000    0.00195312   9 t-inv F
 -0.125000  0.375000  0.000000    0.00195312  10 t-inv F
  0.500000  0.125000  0.000000    0.00195312  11 t-inv F
 -0.125000  0.500000  0.000000    0.00195312  12 t-inv F
  0.250000  0.250000  0.000000    0.00195312  13 t-inv F
  0.375000  0.250000  0.000000    0.00195312  14 t-inv F
 -0.250000  0.375000  0.000000    0.00195312  15 t-inv F
  0.500000  0.250000  0.000000    0.00195312  16 t-inv F
 -0.250000  0.500000  0.000000    0.00195312  17 t-inv F
  0.375000  0.375000  0.000000    0.00195312  18 t-inv F
  0.500000  0.375000  0.000000    0.00195312  19 t-inv F
 -0.375000  0.500000  0.000000    0.00195312  20 t-inv F
  0.500000  0.500000  0.000000    0.00195312  21 t-inv F
  0.125000  0.125000  0.125000    0.00195312  22 t-inv F
  0.250000  0.125000  0.125000    0.00195312  23 t-inv F
  0.375000  0.125000  0.125000    0.00195312  24 t-inv F
  0.500000  0.125000  0.125000    0.00195312  25 t-inv F
  0.250000  0.250000  0.125000    0.00195312  26 t-inv F
  0.375000  0.250000  0.125000    0.00195312  27 t-inv F
 -0.250000  0.375000  0.125000    0.00195312  28 t-inv F
  0.500000  0.250000  0.125000    0.00195312  29 t-inv F
 -0.250000  0.500000  0.125000    0.00195312  30 t-inv F
  0.375000  0.375000  0.125000    0.00195312  31 t-inv F
  0.500000  0.375000  0.125000    0.00195312  32 t-inv F
 -0.375000  0.500000  0.125000    0.00195312  33 t-inv F
  0.500000  0.500000  0.125000    0.00195312  34 t-inv F
  0.250000  0.250000  0.250000    0.00195312  35 t-inv F
  0.375000  0.250000  0.250000    0.00195312  36 t-inv F
  0.500000  0.250000  0.250000    0.00195312  37 t-inv F
  0.375000  0.375000  0.250000    0.00195312  38 t-inv F
  0.500000  0.375000  0.250000    0.00195312  39 t-inv F
 -0.375000  0.500000  0.250000    0.00195312  40 t-inv F
  0.500000  0.500000  0.250000    0.00195312  41 t-inv F
  0.375000  0.375000  0.375000    0.00195312  42 t-inv F
  0.500000  0.375000  0.375000    0.00195312  43 t-inv F
  0.500000  0.500000  0.375000    0.00195312  44 t-inv F
  0.500000  0.500000  0.500000    0.00195312  45 t-inv F
 -0.125000 -0.000000  0.000000    0.00195312   2 t-inv F
  0.000000  0.125000  0.000000    0.00195312   2 t-inv F
  0.000000 -0.125000 -0.000000    0.00195312   2 t-inv F
  0.000000  0.000000  0.125000    0.00195312   2 t-inv F
 -0.000000  0.000000 -0.125000    0.00195312   2 t-inv F
 -0.250000 -0.000000  0.000000    0.00195312   3 t-inv F
  0.000000  0.250000  0.000000    0.00195312   3 t-inv F
  0.000000 -0.250000 -0.000000    0.00195312   3 t-inv F
  0.000000  0.000000  0.250000    0.00195312   3 t-inv F
 -0.000000  0.000000 -0.250000    0.00195312   3 t-inv F
 -0.375000 -0.000000  0.000000    0.00195312   4 t-inv F
  0.000000  0.375000  0.000000    0.00195312   4 t-inv F
  0.000000 -0.375000 -0.000000    0.00195312   4 t-inv F
  0.000000  0.000000  0.375000    0.00195312   4 t-inv F
 -0.000000  0.000000 -0.375000    0.00195312   4 t-inv F
  0.000000  0.500000  0.000000    0.00195312   5 t-inv F
  0.000000  0.000000  0.500000    0.00195312   5 t-inv F
 -0.125000 -0.125000  0.000000    0.00195312   6 t-inv F
  0.000000  0.125000  0.125000    0.00195312   6 t-inv F
  0.000000 -0.125000 -0.125000    0.00195312   6 t-inv F
  0.125000  0.000000  0.125000    0.00195312   6 t-inv F
 -0.125000  0.000000 -0.125000    0.00195312   6 t-inv F
  0.000000 -0.125000  0.125000    0.00195312   6 t-inv F
  0.000000  0.125000 -0.125000    0.00195312   6 t-inv F
 -0.125000  0.000000  0.125000    0.00195312   6 t-inv F
  0.125000  0.000000 -0.125000    0.00195312   6 t-inv F
  0.125000 -0.125000  0.000000    0.00195312   6 t-inv F
 -0.125000  0.125000  0.000000    0.00195312   6 t-inv F
 -0.250000 -0.125000  0.000000    0.00195312   7 t-inv F
  0.000000  0.250000  0.125000    0.00195312   7 t-inv F
  0.000000 -0.250000 -0.125000    0.00195312   7 t-inv F
  0.125000  0.000000  0.250000    0.00195312   7 t-inv F
 -0.125000  0.000000 -0.250000    0.00195312   7 t-inv F
  0.000000 -0.250000  0.125000    0.00195312   7 t-inv F
  0.000000  0.250000 -0.125000    0.00195312   7 t-inv F
 -0.125000  0.000000  0.250000    0.00195312   7 t-inv F
  0.125000  0.000000 -0.250000    0.00195312   7 t-inv F
  0.250000 -0.125000  0.000000    0.00195312   7 t-inv F
 -0.250000  0.125000  0.000000    0.00195312   7 t-inv F
  0.125000 -0.250000  0.000000    0.00195312   8 t-inv F
  0.000000 -0.125000  0.250000    0.00195312   8 t-inv F
  0.000000  0.125000 -0.250000    0.00195312   8 t-inv F
  0.250000  0.000000 -0.125000    0.00195312   8 t-inv F
 -0.250000  0.000000  0.125000    0.00195312   8 t-inv F
  0.000000  0.125000  0.250000    0.00195312   8 t-inv F
  0.000000 -0.125000 -0.250000    0.00195312   8 t-inv F
 -0.250000  0.000000 -0.125000    0.00195312   8 t-inv F
  0.250000  0.000000  0.125000    0.00195312   8 t-inv F
 -0.125000 -0.250000  0.000000    0.00195312   8 t-inv F
  0.125000  0.250000  0.000000    0.00195312   8 t-inv F
 -0.375000 -0.125000  0.000000    0.00195312   9 t-inv F
  0.000000  0.375000  0.125000    0.00195312   9 t-inv F
  0.000000 -0.375000 -0.125000    0.00195312   9 t-inv F
  0.125000  0.000000  0.375000    0.00195312   9 t-inv F
 -0.125000  0.000000 -0.375000    0.00195312   9 t-inv F
  0.000000 -0.375000  0.125000    0.00195312   9 t-inv F
  0.000000  0.375000 -0.125000    0.00195312   9 t-inv F
 -0.125000  0.000000  0.375000    0.00195312   9 t-inv F
  0.125000  0.000000 -0.375000    0.00195312   9 t-inv F
  0.375000 -0.125000  0.000000    0.00195312   9 t-inv F
 -0.375000  0.125000  0.000000    0.00195312   9 t-inv F
  0.125000 -0.375000  0.000000    0.00195312  10 t-inv F
  0.000000 -0.125000  0.375000    0.00195312  10 t-inv F
  0.000000  0.125000 -0.375000    0.00195312  10 t-inv F
  0.375000  0.000000 -0.125000    0.00195312  10 t-inv F
 -0.375000  0.000000  0.125000    0.00195312  10 t-inv F
  0.000000  0.125000  0.375000    0.00195312  10 t-inv F
  0.000000 -0.125000 -0.375000    0.00195312  10 t-inv F
 -0.375000  0.000000 -0.125000    0.00195312  10 t-inv F
  0.375000  0.000000  0.125000    0.00195312  10 t-inv F
 -0.125000 -0.375000  0.000000    0.00195312  10 t-inv F
  0.125000  0.375000  0.000000    0.00195312  10 t-inv F
 -0.500000 -0.125000  0.000000    0.00195312  11 t-inv F
  0.000000  0.500000  0.125000    0.00195312  11 t-inv F
  0.000000 -0.500000 -0.125000    0.00195312  11 t-inv F
  0.125000  0.000000  0.500000    0.00195312  11 t-inv F
 -0.125000  0.000000 -0.500000    0.00195312  11 t-inv F
  0.125000 -0.500000  0.000000    0.00195312  12 t-inv F
  0.000000 -0.125000  0.500000    0.00195312  12 t-inv F
  0.000000  0.125000 -0.500000    0.00195312  12 t-inv F
  0.500000  0.000000 -0.125000    0.00195312  12 t-inv F
 -0.500000  0.000000  0.125000    0.00195312  12 t-inv F
 -0.250000 -0.250000  0.000000    0.00195312  13 t-inv F
  0.000000  0.250000  0.250000    0.00195312  13 t-inv F
  0.000000 -0.250000 -0.250000    0.00195312  13 t-inv F
  0.250000  0.000000  0.250000    0.00195312  13 t-inv F
 -0.250000  0.000000 -0.250000    0.00195312  13 t-inv F
  0.000000 -0.250000  0.250000    0.00195312  13 t-inv F
  0.000000  0.250000 -0.250000    0.00195312  13 t-inv F
 -0.250000  0.000000  0.250000    0.00195312  13 t-inv F
  0.250000  0.000000 -0.250000    0.00195312  13 t-inv F
  0.250000 -0.250000  0.000000    0.00195312  13 t-inv F
 -0.250000  0.250000  0.000000    0.00195312  13 t-inv F
 -0.375000 -0.250000  0.000000    0.00195312  14 t-inv F
  0.000000  0.375000  0.250000    0.00195312  14 t-inv F
  0.000000 -0.375000 -0.250000    0.00195312  14 t-inv F
  0.250000  0.000000  0.375000    0.00195312  14 t-inv F
 -0.250000  0.000000 -0.375000    0.00195312  14 t-inv F
  0.000000 -0.375000  0.250000    0.00195312  14 t-inv F
  0.000000  0.375000 -0.250000    0.00195312  14 t-inv F
 -0.250000  0.000000  0.375000    0.00195312  14 t-inv F
  0.250000  0.000000 -0.375000    0.00195312  14 t-inv F
  0.375000 -0.250000  0.000000    0.00195312  14 t-inv F
 -0.375000  0.250000  0.000000    0.00195312  14 t-inv F
  0.250000 -0.375000  0.000000    0.00195312  15 t-inv F
  0.000000 -0.250000  0.375000    0.00195312  15 t-inv F
  0.000000  0.250000 -0.375000    0.00195312  15 t-inv F
  0.375000  0.000000 -0.250000    0.00195312  15 t-inv F
 -0.375000  0.000000  0.250000    0.00195312  15 t-inv F
  0.000000  0.250000  0.375000    0.00195312  15 t-inv F
  0.000000 -0.250000 -0.375000    0.00195312  15 t-inv F
 -0.375000  0.000000 -0.250000    0.00195312  15 t-inv F
  0.375000  0.000000  0.250000    0.00195312  15 t-inv F
 -0.250000 -0.375000  0.000000    0.00195312  15 t-inv F
  0.250000  0.375000  0.000000    0.00195312  15 t-inv F
 -0.500000 -0.250000  0.000000    0.00195312  16 t-inv F
  0.000000  0.500000  0.250000    0.00195312  16 t-inv F
  0.000000 -0.500000 -0.250000    0.00195312  16 t-inv F
  0.250000  0.000000  0.500000    0.00195312  16 t-inv F
 -0.250000  0.000000 -0.500000    0.00195312  16 t-inv F
  0.250000 -0.500000  0.000000    0.00195312  17 t-inv F
  0.000000 -0.250000  0.500000    0.00195312  17 t-inv F
  0.000000  0.250000 -0.500000    0.00195312  17 t-inv F
  0.500000  0.000000 -0.250000    0.00195312  17 t-inv F
 -0.500000  0.000000  0.250000    0.00195312  17 t-inv F
 -0.375000 -0.375000  0.000000    0.00195312  18 t-inv F
  0.000000  0.375000  0.375000    0.00195312  18 t-inv F
  0.000000 -0.375000 -0.375000    0.00195312  18 t-inv F
  0.375000  0.000000  0.375000    0.00195312  18 t-inv F
 -0.375000  0.000000 -0.375000    0.00195312  18 t-inv F
  0.000000 -0.375000  0.375000    0.00195312  18 t-inv F
  0.000000  0.375000 -0.375000    0.00195312  18 t-inv F
 -0.375000  0.000000  0.375000    0.00195312  18 t-inv F
  0.375000  0.000000 -0.375000    0.00195312  18 t-inv F
  0.375000 -0.375000  0.000000    0.00195312  18 t-inv F
 -0.375000  0.375000  0.000000    0.00195312  18 t-inv F
 -0.500000 -0.375000  0.000000    0.00195312  19 t-inv F
  0.000000  0.500000  0.375000    0.00195312  19 t-inv F
  0.000000 -0.500000 -0.375000    0.00195312  19 t-inv F
  0.375000  0.000000  0.500000    0.00195312  19 t-inv F
 -0.375000  0.000000 -0.500000    0.00195312  19 t-inv F
  0.375000 -0.500000  0.000000    0.00195312  20 t-inv F
  0.000000 -0.375000  0.500000    0.00195312  20 t-inv F
  0.000000  0.375000 -0.500000    0.00195312  20 t-inv F
  0.500000  0.000000 -0.375000    0.00195312  20 t-inv F
 -0.500000  0.000000  0.375000    0.00195312  20 t-inv F
  0.000000  0.500000  0.500000    0.00195312  21 t-inv F
  0.500000  0.000000  0.500000    0.00195312  21 t-inv F
 -0.125000 -0.125000 -0.125000    0.00195312  22 t-inv F
 -0.125000 -0.125000  0.125000    0.00195312  22 t-inv F
  0.125000  0.125000 -0.125000    0.00195312  22 t-inv F
  0.125000 -0.125000 -0.125000    0.00195312  22 t-inv F
 -0.125000  0.125000  0.125000    0.00195312  22 t-inv F
 -0.125000  0.125000 -0.125000    0.00195312  22 t-inv F
  0.125000 -0.125000  0.125000    0.00195312  22 t-inv F
 -0.250000 -0.125000 -0.125000    0.00195312  23 t-inv F
  0.125000  0.250000  0.125000    0.00195312  23 t-inv F
 -0.125000 -0.250000 -0.125000    0.00195312  23 t-inv F
  0.125000  0.125000  0.250000    0.00195312  23 t-inv F
 -0.125000 -0.125000 -0.250000    0.00195312  23 t-inv F
 -0.250000 -0.125000  0.125000    0.00195312  23 t-inv F
  0.250000  0.125000 -0.125000    0.00195312  23 t-inv F
 -0.125000 -0.250000  0.125000    0.00195312  23 t-inv F
  0.125000  0.250000 -0.125000    0.00195312  23 t-inv F
 -0.125000 -0.125000  0.250000    0.00195312  23 t-inv F
  0.125000  0.125000 -0.250000    0.00195312  23 t-inv F
  0.125000 -0.250000 -0.125000    0.00195312  23 t-inv F
 -0.125000  0.250000  0.125000    0.00195312  23 t-inv F
  0.125000 -0.125000 -0.250000    0.00195312  23 t-inv F
 -0.125000  0.125000  0.250000    0.00195312  23 t-inv F
  0.250000 -0.125000 -0.125000    0.00195312  23 t-inv F
 -0.250000  0.125000  0.125000    0.00195312  23 t-inv F
 -0.125000  0.125000 -0.250000    0.00195312  23 t-inv F
  0.125000 -0.125000  0.250000    0.00195312  23 t-inv F
 -0.250000  0.125000 -0.125000    0.00195312  23 t-inv F
  0.250000 -0.125000  0.125000    0.00195312  23 t-inv F
 -0.125000  0.250000 -0.125000    0.00195312  23 t-inv F
  0.125000 -0.250000  0.125000    0.00195312  23 t-inv F
 -0.375000 -0.125000 -0.125000    0.00195312  24 t-inv F
  0.125000  0.375000  0.125000    0.00195312  24 t-inv F
 -0.125000 -0.375000 -0.125000    0.00195312  24 t-inv F
  0.125000  0.125000  0.375000    0.00195312  24 t-inv F
 -0.125000 -0.125000 -0.375000    0.00195312  24 t-inv F
 -0.375000 -0.125000  0.125000    0.00195312  24 t-inv F
  0.375000  0.125000 -0.125000    0.00195312  24 t-inv F
 -0.125000 -0.375000  0.125000    0.00195312  24 t-inv F
  0.125000  0.375000 -0.125000    0.00195312  24 t-inv F
 -0.125000 -0.125000  0.375000    0.00195312  24 t-inv F
  0.125000  0.125000 -0.375000    0.00195312  24 t-inv F
  0.125000 -0.375000 -0.125000    0.00195312  24 t-inv F
 -0.125000  0.375000  0.125000    0.00195312  24 t-inv F
  0.125000 -0.125000 -0.375000    0.00195312  24 t-inv F
 -0.125000  0.125000  0.375000    0.00195312  24 t-inv F
  0.375000 -0.125000 -0.125000    0.00195312  24 t-inv F
 -0.375000  0.125000  0.125000    0.00195312  24 t-inv F
 -0.125000  0.125000 -0.375000    0.00195312  24 t-inv F
  0.125000 -0.125000  0.375000    0.00195312  24 t-inv F
 -0.375000  0.125000 -0.125000    0.00195312  24 t-inv F
  0.375000 -0.125000  0.125000    0.00195312  24 t-inv F
 -0.125000  0.375000 -0.125000    0.00195312  24 t-inv F
  0.125000 -0.375000  0.125000    0.00195312  24 t-inv F
 -0.500000 -0.125000 -0.125000    0.00195312  25 t-inv F
  0.125000  0.500000  0.125000    0.00195312  25 t-inv F
 -0.125000 -0.500000 -0.125000    0.00195312  25 t-inv F
  0.125000  0.125000  0.500000    0.00195312  25 t-inv F
 -0.125000 -0.125000 -0.500000    0.00195312  25 t-inv F
 -0.500000 -0.125000  0.125000    0.00195312  25 t-inv F
  0.500000  0.125000 -0.125000    0.00195312  25 t-inv F
 -0.125000 -0.500000  0.125000    0.00195312  25 t-inv F
  0.125000  0.500000 -0.125000    0.00195312  25 t-inv F
  0.125000 -0.125000 -0.500000    0.00195312  25 t-inv F
 -0.125000  0.125000  0.500000    0.00195312  25 t-inv F
 -0.250000 -0.250000 -0.125000    0.00195312  26 t-inv F
  0.125000  0.250000  0.250000    0.00195312  26 t-inv F
 -0.125000 -0.250000 -0.250000    0.00195312  26 t-inv F
  0.250000  0.125000  0.250000    0.00195312  26 t-inv F
 -0.250000 -0.125000 -0.250000    0.00195312  26 t-inv F
 -0.250000 -0.250000  0.125000    0.00195312  26 t-inv F
  0.250000  0.250000 -0.125000    0.00195312  26 t-inv F
 -0.125000 -0.250000  0.250000    0.00195312  26 t-inv F
  0.125000  0.250000 -0.250000    0.00195312  26 t-inv F
 -0.250000 -0.125000  0.250000    0.00195312  26 t-inv F
  0.250000  0.125000 -0.250000    0.00195312  26 t-inv F
  0.125000 -0.250000 -0.250000    0.00195312  26 t-inv F
 -0.125000  0.250000  0.250000    0.00195312  26 t-inv F
  0.250000 -0.125000 -0.250000    0.00195312  26 t-inv F
 -0.250000  0.125000  0.250000    0.00195312  26 t-inv F
  0.250000 -0.250000 -0.125000    0.00195312  26 t-inv F
 -0.250000  0.250000  0.125000    0.00195312  26 t-inv F
 -0.250000  0.125000 -0.250000    0.00195312  26 t-inv F
  0.250000 -0.125000  0.250000    0.00195312  26 t-inv F
 -0.250000  0.250000 -0.125000    0.00195312  26 t-inv F
  0.250000 -0.250000  0.125000    0.00195312  26 t-inv F
 -0.125000  0.250000 -0.250000    0.00195312  26 t-inv F
  0.125000 -0.250000  0.250000    0.00195312  26 t-inv F
 -0.375000 -0.250000 -0.125000    0.00195312  27 t-inv F
  0.125000  0.375000  0.250000    0.00195312  27 t-inv F
 -0.125000 -0.375000 -0.250000    0.00195312  27 t-inv F
  0.250000  0.125000  0.375000    0.00195312  27 t-inv F
 -0.250000 -0.125000 -0.375000    0.00195312  27 t-inv F
 -0.375000 -0.250000  0.125000    0.00195312  27 t-inv F
  0.375000  0.250000 -0.125000    0.00195312  27 t-inv F
 -0.125000 -0.375000  0.250000    0.00195312  27 t-inv F
  0.125000  0.375000 -0.250000    0.00195312  27 t-inv F
 -0.250000 -0.125000  0.375000    0.00195312  27 t-inv F
  0.250000  0.125000 -0.375000    0.00195312  27 t-inv F
  0.125000 -0.375000 -0.250000    0.00195312  27 t-inv F
 -0.125000  0.375000  0.250000    0.00195312  27 t-inv F
  0.250000 -0.125000 -0.375000    0.00195312  27 t-inv F
 -0.250000  0.125000  0.375000    0.00195312  27 t-inv F
  0.375000 -0.250000 -0.125000    0.00195312  27 t-inv F
 -0.375000  0.250000  0.125000    0.00195312  27 t-inv F
 -0.250000  0.125000 -0.375000    0.00195312  27 t-inv F
  0.250000 -0.125000  0.375000    0.00195312  27 t-inv F
 -0.375000  0.250000 -0.125000    0.00195312  27 t-inv F
  0.375000 -0.250000  0.125000    0.00195312  27 t-inv F
 -0.125000  0.375000 -0.250000    0.00195312  27 t-inv F
  0.125000 -0.375000  0.250000    0.00195312  27 t-inv F
  0.250000 -0.375000 -0.125000    0.00195312  28 t-inv F
  0.125000 -0.250000  0.375000    0.00195312  28 t-inv F
 -0.125000  0.250000 -0.375000    0.00195312  28 t-inv F
  0.375000  0.125000 -0.250000    0.00195312  28 t-inv F
 -0.375000 -0.125000  0.250000    0.00195312  28 t-inv F
  0.250000 -0.375000  0.125000    0.00195312  28 t-inv F
 -0.250000  0.375000 -0.125000    0.00195312  28 t-inv F
 -0.125000  0.250000  0.375000    0.00195312  28 t-inv F
  0.125000 -0.250000 -0.375000    0.00195312  28 t-inv F
 -0.375000 -0.125000 -0.250000    0.00195312  28 t-inv F
  0.375000  0.125000  0.250000    0.00195312  28 t-inv F
  0.125000  0.250000 -0.375000    0.00195312  28 t-inv F
 -0.125000 -0.250000  0.375000    0.00195312  28 t-inv F
  0.375000 -0.125000  0.250000    0.00195312  28 t-inv F
 -0.375000  0.125000 -0.250000    0.00195312  28 t-inv F
 -0.250000 -0.375000 -0.125000    0.00195312  28 t-inv F
  0.250000  0.375000  0.125000    0.00195312  28 t-inv F
 -0.375000  0.125000  0.250000    0.00195312  28 t-inv F
  0.375000 -0.125000 -0.250000    0.00195312  28 t-inv F
  0.250000  0.375000 -0.125000    0.00195312  28 t-inv F
 -0.250000 -0.375000  0.125000    0.00195312  28 t-inv F
 -0.125000 -0.250000 -0.375000    0.00195312  28 t-inv F
  0.125000  0.250000  0.375000    0.00195312  28 t-inv F
 -0.500000 -0.250000 -0.125000    0.00195312  29 t-inv F
  0.125000  0.500000  0.250000    0.00195312  29 t-inv F
 -0.125000 -0.500000 -0.250000    0.00195312  29 t-inv F
  0.250000  0.125000  0.500000    0.00195312  29 t-inv F
 -0.250000 -0.125000 -0.500000    0.00195312  29 t-inv F
 -0.500000 -0.250000  0.125000    0.00195312  29 t-inv F
  0.500000  0.250000 -0.125000    0.00195312  29 t-inv F
 -0.125000 -0.500000  0.250000    0.00195312  29 t-inv F
  0.125000  0.500000 -0.250000    0.00195312  29 t-inv F
  0.250000 -0.125000 -0.500000    0.00195312  29 t-inv F
 -0.250000  0.125000  0.500000    0.00195312  29 t-inv F
  0.250000 -0.500000 -0.125000    0.00195312  30 t-inv F
  0.125000 -0.250000  0.500000    0.00195312  30 t-inv F
 -0.125000  0.250000 -0.500000    0.00195312  30 t-inv F
  0.500000  0.125000 -0.250000    0.00195312  30 t-inv F
 -0.500000 -0.125000  0.250000    0.00195312  30 t-inv F
  0.250000 -0.500000  0.125000    0.00195312  30 t-inv F
 -0.250000  0.500000 -0.125000    0.00195312  30 t-inv F
 -0.500000 -0.125000 -0.250000    0.00195312  30 t-inv F
  0.500000  0.125000  0.250000    0.00195312  30 t-inv F
  0.125000  0.250000 -0.500000    0.00195312  30 t-inv F
 -0.125000 -0.250000  0.500000    0.00195312  30 t-inv F
 -0.375000 -0.375000 -0.125000    0.00195312  31 t-inv F
  0.125000  0.375000  0.375000    0.00195312  31 t-inv F
 -0.125000 -0.375000 -0.375000    0.00195312  31 t-inv F
  0.375000  0.125000  0.375000    0.00195312  31 t-inv F
 -0.375000 -0.125000 -0.375000    0.00195312  31 t-inv F
 -0.375000 -0.375000  0.125000    0.00195312  31 t-inv F
  0.375000  0.375000 -0.125000    0.00195312  31 t-inv F
 -0.125000 -0.375000  0.375000    0.00195312  31 t-inv F
  0.125000  0.375000 -0.375000    0.00195312  31 t-inv F
 -0.375000 -0.125000  0.375000    0.00195312  31 t-inv F
  0.375000  0.125000 -0.375000    0.00195312  31 t-inv F
  0.125000 -0.375000 -0.375000    0.00195312  31 t-inv F
 -0.125000  0.375000  0.375000    0.00195312  31 t-inv F
  0.375000 -0.125000 -0.375000    0.00195312  31 t-inv F
 -0.375000  0.125000  0.375000    0.00195312  31 t-inv F
  0.375000 -0.375000 -0.125000    0.00195312  31 t-inv F
 -0.375000  0.375000  0.125000    0.00195312  31 t-inv F
 -0.375000  0.125000 -0.375000    0.00195312  31 t-inv F
  0.375000 -0.125000  0.375000    0.00195312  31 t-inv F
 -0.375000  0.375000 -0.125000    0.00195312  31 t-inv F
  0.375000 -0.375000  0.125000    0.00195312  31 t-inv F
 -0.125000  0.375000 -0.375000    0.00195312  31 t-inv F
  0.125000 -0.375000  0.375000    0.00195312  31 t-inv F
 -0.500000 -0.375000 -0.125000    0.00195312  32 t-inv F
  0.125000  0.500000  0.375000    0.00195312  32 t-inv F
 -0.125000 -0.500000 -0.375000    0.00195312  32 t-inv F
  0.375000  0.125000  0.500000    0.00195312  32 t-inv F
 -0.375000 -0.125000 -0.500000    0.00195312  32 t-inv F
 -0.500000 -0.375000  0.125000    0.00195312  32 t-inv F
  0.500000  0.375000 -0.125000    0.00195312  32 t-inv F
 -0.125000 -0.500000  0.375000    0.00195312  32 t-inv F
  0.125000  0.500000 -0.375000    0.00195312  32 t-inv F
  0.375000 -0.125000 -0.500000    0.00195312  32 t-inv F
 -0.375000  0.125000  0.500000    0.00195312  32 t-inv F
  0.375000 -0.500000 -0.125000    0.00195312  33 t-inv F
  0.125000 -0.375000  0.500000    0.00195312  33 t-inv F
 -0.125000  0.375000 -0.500000    0.00195312  33 t-inv F
  0.500000  0.125000 -0.375000    0.00195312  33 t-inv F
 -0.500000 -0.125000  0.375000    0.00195312  33 t-inv F
  0.375000 -0.500000  0.125000    0.00195312  33 t-inv F
 -0.375000  0.500000 -0.125000    0.00195312  33 t-inv F
 -0.500000 -0.125000 -0.375000    0.00195312  33 t-inv F
  0.500000  0.125000  0.375000    0.00195312  33 t-inv F
  0.125000  0.375000 -0.500000    0.00195312  33 t-inv F
 -0.125000 -0.375000  0.500000    0.00195312  33 t-inv F
 -0.500000 -0.500000 -0.125000    0.00195312  34 t-inv F
  0.125000  0.500000  0.500000    0.00195312  34 t-inv F
 -0.125000 -0.500000 -0.500000    0.00195312  34 t-inv F
  0.500000  0.125000  0.500000    0.00195312  34 t-inv F
 -0.500000 -0.125000 -0.500000    0.00195312  34 t-inv F
 -0.250000 -0.250000 -0.250000    0.00195312  35 t-inv F
 -0.250000 -0.250000  0.250000    0.00195312  35 t-inv F
  0.250000  0.250000 -0.250000    0.00195312  35 t-inv F
  0.250000 -0.250000 -0.250000    0.00195312  35 t-inv F
 -0.250000  0.250000  0.250000    0.00195312  35 t-inv F
 -0.250000  0.250000 -0.250000    0.00195312  35 t-inv F
  0.250000 -0.250000  0.250000    0.00195312  35 t-inv F
 -0.375000 -0.250000 -0.250000    0.00195312  36 t-inv F
  0.250000  0.375000  0.250000    0.00195312  36 t-inv F
 -0.250000 -0.375000 -0.250000    0.00195312  36 t-inv F
  0.250000  0.250000  0.375000    0.00195312  36 t-inv F
 -0.250000 -0.250000 -0.375000    0.00195312  36 t-inv F
 -0.375000 -0.250000  0.250000    0.00195312  36 t-inv F
  0.375000  0.250000 -0.250000    0.00195312  36 t-inv F
 -0.250000 -0.375000  0.250000    0.00195312  36 t-inv F
  0.250000  0.375000 -0.250000    0.00195312  36 t-inv F
 -0.250000 -0.250000  0.375000    0.00195312  36 t-inv F
  0.250000  0.250000 -0.375000    0.00195312  36 t-inv F
  0.250000 -0.375000 -0.250000    0.00195312  36 t-inv F
 -0.250000  0.375000  0.250000    0.00195312  36 t-inv F
  0.250000 -0.250000 -0.375000    0.00195312  36 t-inv F
 -0.250000  0.250000  0.375000    0.00195312  36 t-inv F
  0.375000 -0.250000 -0.250000    0.00195312  36 t-inv F
 -0.375000  0.250000  0.250000    0.00195312  36 t-inv F
 -0.250000  0.250000 -0.375000    0.00195312  36 t-inv F
  0.250000 -0.250000  0.375000    0.00195312  36 t-inv F
 -0.375000  0.250000 -0.250000    0.00195312  36 t-inv F
  0.375000 -0.250000  0.250000    0.00195312  36 t-inv F
 -0.250000  0.375000 -0.250000    0.00195312  36 t-inv F
  0.250000 -0.375000  0.250000    0.00195312  36 t-inv F
 -0.500000 -0.250000 -0.250000    0.00195312  37 t-inv F
  0.250000  0.500000  0.250000    0.00195312  37 t-inv F
 -0.250000 -0.500000 -0.250000    0.00195312  37 t-inv F
  0.250000  0.250000  0.500000    0.00195312  37 t-inv F
 -0.250000 -0.250000 -0.500000    0.00195312  37 t-inv F
 -0.500000 -0.250000  0.250000    0.00195312  37 t-inv F
  0.500000  0.250000 -0.250000    0.00195312  37 t-inv F
 -0.250000 -0.500000  0.250000    0.00195312  37 t-inv F
  0.250000  0.500000 -0.250000    0.00195312  37 t-inv F
  0.250000 -0.250000 -0.500000    0.00195312  37 t-inv F
 -0.250000  0.250000  0.500000    0.00195312  37 t-inv F
 -0.375000 -0.375000 -0.250000    0.00195312  38 t-inv F
  0.250000  0.375000  0.375000    0.00195312  38 t-inv F
 -0.250000 -0.375000 -0.375000    0.00195312  38 t-inv F
  0.375000  0.250000  0.375000    0.00195312  38 t-inv F
 -0.375000 -0.250000 -0.375000    0.00195312  38 t-inv F
 -0.375000 -0.375000  0.250000    0.00195312  38 t-inv F
  0.375000  0.375000 -0.250000    0.00195312  38 t-inv F
 -0.250000 -0.375000  0.375000    0.00195312  38 t-inv F
  0.250000  0.375000 -0.375000    0.00195312  38 t-inv F
 -0.375000 -0.250000  0.375000    0.00195312  38 t-inv F
  0.375000  0.250000 -0.375000    0.00195312  38 t-inv F
  0.250000 -0.375000 -0.375000    0.00195312  38 t-inv F
 -0.250000  0.375000  0.375000    0.00195312  38 t-inv F
  0.375000 -0.250000 -0.375000    0.00195312  38 t-inv F
 -0.375000  0.250000  0.375000    0.00195312  38 t-inv F
  0.375000 -0.375000 -0.250000    0.00195312  38 t-inv F
 -0.375000  0.375000  0.250000    0.00195312  38 t-inv F
 -0.375000  0.250000 -0.375000    0.00195312  38 t-inv F
  0.375000 -0.250000  0.375000    0.00195312  38 t-inv F
 -0.375000  0.375000 -0.250000    0.00195312  38 t-inv F
  0.375000 -0.375000  0.250000    0.00195312  38 t-inv F
 -0.250000  0.375000 -0.375000    0.00195312  38 t-inv F
  0.250000 -0.375000  0.375000    0.00195312  38 t-inv F
 -0.500000 -0.375000 -0.250000    0.00195312  39 t-inv F
  0.250000  0.500000  0.375000    0.00195312  39 t-inv F
 -0.250000 -0.500000 -0.375000    0.00195312  39 t-inv F
  0.375000  0.250000  0.500000    0.00195312  39 t-inv F
 -0.375000 -0.250000 -0.500000    0.00195312  39 t-inv F
 -0.500000 -0.375000  0.250000    0.00195312  39 t-inv F
  0.500000  0.375000 -0.250000    0.00195312  39 t-inv F
 -0.250000 -0.500000  0.375000    0.00195312  39 t-inv F
  0.250000  0.500000 -0.375000    0.00195312  39 t-inv F
  0.375000 -0.250000 -0.500000    0.00195312  39 t-inv F
 -0.375000  0.250000  0.500000    0.00195312  39 t-inv F
  0.375000 -0.500000 -0.250000    0.00195312  40 t-inv F
  0.250000 -0.375000  0.500000    0.00195312  40 t-inv F
 -0.250000  0.375000 -0.500000    0.00195312  40 t-inv F
  0.500000  0.250000 -0.375000    0.00195312  40 t-inv F
 -0.500000 -0.250000  0.375000    0.00195312  40 t-inv F
  0.375000 -0.500000  0.250000    0.00195312  40 t-inv F
 -0.375000  0.500000 -0.250000    0.00195312  40 t-inv F
 -0.500000 -0.250000 -0.375000    0.00195312  40 t-inv F
  0.500000  0.250000  0.375000    0.00195312  40 t-inv F
  0.250000  0.375000 -0.500000    0.00195312  40 t-inv F
 -0.250000 -0.375000  0.500000    0.00195312  40 t-inv F
 -0.500000 -0.500000 -0.250000    0.00195312  41 t-inv F
  0.250000  0.500000  0.500000    0.00195312  41 t-inv F
 -0.250000 -0.500000 -0.500000    0.00195312  41 t-inv F
  0.500000  0.250000  0.500000    0.00195312  41 t-inv F
 -0.500000 -0.250000 -0.500000    0.00195312  41 t-inv F
 -0.375000 -0.375000 -0.375000    0.00195312  42 t-inv F
 -0.375000 -0.375000  0.375000    0.00195312  42 t-inv F
  0.375000  0.375000 -0.375000    0.00195312  42 t-inv F
  0.375000 -0.375000 -0.375000    0.00195312  42 t-inv F
 -0.375000  0.375000  0.375000    0.00195312  42 t-inv F
 -0.375000  0.375000 -0.375000    0.00195312  42 t-inv F
  0.375000 -0.375000  0.375000    0.00195312  42 t-inv F
 -0.500000 -0.375000 -0.375000    0.00195312  43 t-inv F
  0.375000  0.500000  0.375000    0.00195312  43 t-inv F
 -0.375000 -0.500000 -0.375000    0.00195312  43 t-inv F
  0.375000  0.375000  0.500000    0.00195312  43 t-inv F
 -0.375000 -0.375000 -0.500000    0.00195312  43 t-inv F
 -0.500000 -0.375000  0.375000    0.00195312  43 t-inv F
  0.500000  0.375000 -0.375000    0.00195312  43 t-inv F
 -0.375000 -0.500000  0.375000    0.00195312  43 t-inv F
  0.375000  0.500000 -0.375000    0.00195312  43 t-inv F
  0.375000 -0.375000 -0.500000    0.00195312  43 t-inv F
 -0.375000  0.375000  0.500000    0.00195312  43 t-inv F
 -0.500000 -0.500000 -0.375000    0.00195312  44 t-inv F
  0.375000  0.500000  0.500000    0.00195312  44 t-inv F
 -0.375000 -0.500000 -0.500000    0.00195312  44 t-inv F
  0.500000  0.375000  0.500000    0.00195312  44 t-inv F
 -0.500000 -0.375000 -0.500000    0.00195312  44 t-inv F


--------------------------------------------------------------------------------------------------------




 Dimension of arrays:
   k-points           NKPTS =     45   k-points in BZ     NKDIM =     45   number of bands    NBANDS=     48
   number of dos      NEDOS =    301   number of ions     NIONS =      8
   non local maximal  LDIM  =      4   non local SUM 2l+1 LMDIM =      8
   total plane-waves  NPLWV =  46656
   max r-space proj   IRMAX =      1   max aug-charges    IRDMAX=   2620
   dimension x,y,z NGX =    36 NGY =   36 NGZ =   36
   dimension x,y,z NGXF=    72 NGYF=   72 NGZF=   72
   support grid    NGXF=    72 NGYF=   72 NGZF=   72
   ions per type =               8
   NGX,Y,Z   is equivalent  to a cutoff of   9.67,  9.67,  9.67 a.u.
   NGXF,Y,Z  is equivalent  to a cutoff of  19.34, 19.34, 19.34 a.u.

 SYSTEM =  N                                       
 POSCAR =  N8                                      

 Startparameter for this run:
   NWRITE =      2    write-flag & timer
   PREC   = normal    normal or accurate (medium, high low for compatibility)
   ISTART =      1    job   : 0-new  1-cont  2-samecut
   ICHARG =      0    charge: 1-file 2-atom 10-const
   ISPIN  =      1    spin polarized calculation?
   LNONCOLLINEAR =      F non collinear calculations
   LSORBIT =      F    spin-orbit coupling
   INIWAV =      1    electr: 0-lowe 1-rand  2-diag
   LASPH  =      F    aspherical Exc in radial PAW
 Electronic Relaxation 1
   ENCUT  =  520.0 eV  38.22 Ry    6.18 a.u.  11.51 11.51 11.51*2*pi/ulx,y,z
   ENINI  =  520.0     initial cutoff
   ENAUG  =  627.1 eV  augmentation charge cutoff
   NELM   =     60;   NELMIN=  2; NELMDL=  0     # of ELM steps 
   EDIFF  = 0.1E-03   stopping-criterion for ELM
   LREAL  =      F    real-space projection
   NLSPLINE    = F    spline interpolate recip. space projectors
   LCOMPAT=      F    compatible to vasp.4.4
   GGA_COMPAT  = T    GGA compatible to vasp.4.4-vasp.4.6
   LMAXPAW     = -100 max onsite density
   LMAXMIX     =    2 max onsite mixed and CHGCAR
   VOSKOWN=      0    Vosko Wilk Nusair interpolation
   ROPT   =    0.00000
 Ionic relaxation
   EDIFFG = 0.1E-02   stopping-criterion for IOM
   NSW    =      0    number of steps for IOM
   NBLOCK =      1;   KBLOCK =      1    inner block; outer block 
   IBRION =     -1    ionic relax: 0-MD 1-quasi-New 2-CG
   NFREE  =      0    steps in history (QN), initial steepest desc. (CG)
   ISIF   =      2    stress and relaxation
   IWAVPR =     10    prediction:  0-non 1-charg 2-wave 3-comb
   ISYM   =      2    0-nonsym 1-usesym 2-fastsym
   LCORR  =      T    Harris-Foulkes like correction to forces

   POTIM  = 0.5000    time-step for ionic-motion
   TEIN   =    0.0    initial temperature
   TEBEG  =    0.0;   TEEND  =   0.0 temperature during run
   SMASS  =  -3.00    Nose mass-parameter (am)
   estimated Nose-frequenzy (Omega)   =  0.10E-29 period in steps = 0.13E+47 mass=  -0.876E-27a.u.
   SCALEE = 1.0000    scale energy and forces
   NPACO  =    256;   APACO  = 10.0  distance and # of slots for P.C.
   PSTRESS=    0.0 pullay stress

  Mass of Ions in am
   POMASS =  14.00
  Ionic Valenz
   ZVAL   =   5.00
  Atomic Wigner-Seitz radii
   RWIGS  =  -1.00
  virtual crystal weights 
   VCA    =   1.00
   NELECT =      40.0000    total number of electrons
   NUPDOWN=      -1.0000    fix difference up-down

 DOS related values:
   EMIN   =  10.00;   EMAX   =-10.00  energy-range for DOS
   EFERMI =   0.00;   METHOD = LEGACY      
   ISMEAR =     0;   SIGMA  =   0.05  broadening in eV -4-tet -1-fermi 0-gaus

 Electronic relaxation 2 (details)
   IALGO  =     38    algorithm
   LDIAG  =      T    sub-space diagonalisation (order eigenvalues)
   LSUBROT=      F    optimize rotation matrix (better conditioning)
   TURBO    =      0    0=normal 1=particle mesh
   IRESTART =      0    0=no restart 2=restart with 2 vectors
   NREBOOT  =      0    no. of reboots
   NMIN     =      0    reboot dimension
   EREF     =   0.00    reference energy to select bands
   IMIX   =      4    mixing-type and parameters
     AMIX     =   0.40;   BMIX     =  1.00
     AMIX_MAG =   1.60;   BMIX_MAG =  1.00
     AMIN     =   0.10
     WC   =   100.;   INIMIX=   1;  MIXPRE=   1;  MAXMIX= -45

 Intra band minimization:
   WEIMIN = 0.0000     energy-eigenvalue tresh-hold
   EBREAK =  0.52E-06  absolut break condition
   DEPER  =   0.30     relativ break condition  

   TIME   =   0.40     timestep for ELM

  volume/ion in A,a.u.               =      29.65       200.09
  Fermi-wavevector in a.u.,A,eV,Ry     =   0.904463  1.709187 11.130293  0.818053
  Thomas-Fermi vector in A             =   2.027913
 
 Write flags
   LWAVE        =      T    write WAVECAR
   LDOWNSAMPLE  =      F    k-point downsampling of WAVECAR
   LCHARG       =      T    write CHGCAR
   LVTOT        =      F    write LOCPOT, total local potential
   LVHAR        =      F    write LOCPOT, Hartree potential only
   WRT_POTENTIAL= false  ! write potential to hdf5 file
   LELF         =      F    write electronic localiz. function (ELF)
   LORBIT       =      0    0 simple, 1 ext, 2 COOP (PROOUT), +10 PAW based schemes


 Dipole corrections
   LMONO      =      F    monopole corrections only (constant potential shift)
   LDIPOL     =      F    correct potential (dipole corrections)
   IDIPOL     =      0    1-x, 2-y, 3-z, 4-all directions 
   EPSILON    =  1.0000000 bulk dielectric constant
   LVACPOTAV  =      F  vacuum potentials using an averaging scheme for the charge density
   VACPOTFLAT =  0.1000000 required flatness to determine vacuum potential
 Exchange correlation treatment:
   GGA     = PE    functional components
   XC_C    = 1    coefficients multiplying the functional components
   LIBXC   =     F    Libxc                    
   VOSKOWN =     0    Vosko Wilk Nusair interpolation
   LHFCALC =     F    Hartree Fock is set to
   LHFONE  =     F    Hartree Fock one center treatment
   AEXX    =    0.0000 exact exchange contribution

 Parameters of functionals:
   PE:
     No parameter
 
 Van der Waals corrections
   IVDW    =     0    specifies the selected vdW correction

 Linear response parameters
   LEPSILON=     F    determine dielectric tensor
   LRPA    =     F    only Hartree local field effects (RPA)
   LNABLA  =     F    use nabla operator in PAW spheres
   LVEL    =     F    velocity operator in full k-point grid
   CSHIFT  =0.1000    complex shift for real part using Kramers Kronig
   OMEGAMAX=  -1.0    maximum frequency
   DEG_THRESHOLD= 0.2000000E-02 threshold for treating states as degnerate
   RTIME   =   -0.100 relaxation time in fs
  (WPLASMAI=    0.000 imaginary part of plasma frequency in eV, 0.658/RTIME)
   DFIELD  = 0.0000000 0.0000000 0.0000000 field for delta impulse in time
 
  Optional k-point grid parameters
   LKPOINTS_OPT  =     T    use optional k-point grid
   KPOINTS_OPT_MODE=     1    mode for optional k-point grid
 
 Orbital magnetization related:
   ORBITALMAG=     F  switch on orbital magnetization
   LCHIMAG   =     F  perturbation theory with respect to B field
   DQ        =  0.001000  dq finite difference perturbation B field
   LLRAUG    =     F  two centre corrections for induced B field
   LBONE     =     F  B-component reconstruction in AE one-centre
   LVGVCALC  =     T  calculate vGv susceptibility
   LVGVAPPL  =     F  apply vGv susceptibility instead of pGv for G=0

 Random number generation:
   RANDOM_GENERATOR = DEFAULT
   PCG_SEED         = not used


--------------------------------------------------------------------------------------------------------


 Static calculation
 charge density and potential will be updated during run
 non-spin polarized calculation
 Variant of blocked Davidson
 Davidson routine will perform the subspace rotation
 perform sub-space diagonalisation
    after iterative eigenvector-optimisation
 modified Broyden-mixing scheme, WC =      100.0
 initial mixing is a Kerker type mixing with AMIX =  0.4000 and BMIX =      1.0000
 Hartree-type preconditioning will be used
 using additional bands           28
 reciprocal scheme for non local part
 use partial core corrections
 calculate Harris-corrections to forces 
   (improved forces if not selfconsistent)
 use gradient corrections 
 use of overlap-Matrix (Vanderbilt PP)
 Gauss-broadening in eV      SIGMA  =   0.05


--------------------------------------------------------------------------------------------------------


  energy-cutoff  :      520.00
  volume of cell :      237.20
      direct lattice vectors                 reciprocal lattice vectors
     6.190190000  0.000000000  0.000000000     0.161545930 -0.000000000  0.000000000
     0.000000000  6.190190000  0.000000000     0.000000000  0.161545930  0.000000000
     0.000000000  0.000000000  6.190190000    -0.000000000 -0.000000000  0.161545930

  length of vectors
     6.190190000  6.190190000  6.190190000     0.161545930  0.161545930  0.161545930


 
 old parameters found on file WAVECAR:
  energy-cutoff  :      520.00
  volume of cell :      237.20
      direct lattice vectors                 reciprocal lattice vectors
     6.190190000  0.000000000  0.000000000     0.161545930 -0.000000000  0.000000000
     0.000000000  6.190190000  0.000000000     0.000000000  0.161545930  0.000000000
     0.000000000  0.000000000  6.190190000    -0.000000000 -0.000000000  0.161545930

  length of vectors

 
 k-points in units of 2pi/SCALE and weight: Automatic kpoint scheme                 
   0.00000000  0.00000000  0.00000000       0.002
   0.02019324 -0.00000000  0.00000000       0.012
   0.04038648 -0.00000000  0.00000000       0.012
   0.06057972 -0.00000000  0.00000000       0.012
   0.08077296 -0.00000000  0.00000000       0.006
   0.02019324  0.02019324  0.00000000       0.023
   0.04038648  0.02019324  0.00000000       0.023
  -0.02019324  0.04038648  0.00000000       0.023
   0.06057972  0.02019324  0.00000000       0.023
  -0.02019324  0.06057972  0.00000000       0.023
   0.08077296  0.02019324  0.00000000       0.012
  -0.02019324  0.08077296  0.00000000       0.012
   0.04038648  0.04038648  0.00000000       0.023
   0.06057972  0.04038648  0.00000000       0.023
  -0.04038648  0.06057972  0.00000000       0.023
   0.08077296  0.04038648  0.00000000       0.012
  -0.04038648  0.08077296  0.00000000       0.012
   0.06057972  0.06057972  0.00000000       0.023
   0.08077296  0.06057972  0.00000000       0.012
  -0.06057972  0.08077296  0.00000000       0.012
   0.08077296  0.08077296  0.00000000       0.006
   0.02019324  0.02019324  0.02019324       0.016
   0.04038648  0.02019324  0.02019324       0.047
   0.06057972  0.02019324  0.02019324       0.047
   0.08077296  0.02019324  0.02019324       0.023
   0.04038648  0.04038648  0.02019324       0.047
   0.06057972  0.04038648  0.02019324       0.047
  -0.04038648  0.06057972  0.02019324       0.047
   0.08077296  0.04038648  0.02019324       0.023
  -0.04038648  0.08077296  0.02019324       0.023
   0.06057972  0.06057972  0.02019324       0.047
   0.08077296  0.06057972  0.02019324       0.023
  -0.06057972  0.08077296  0.02019324       0.023
   0.08077296  0.08077296  0.02019324       0.012
   0.04038648  0.04038648  0.04038648       0.016
   0.06057972  0.04038648  0.04038648       0.047
   0.08077296  0.04038648  0.04038648       0.023
   0.06057972  0.06057972  0.04038648       0.047
   0.08077296  0.06057972  0.04038648       0.023
  -0.06057972  0.08077296  0.04038648       0.023
   0.08077296  0.08077296  0.04038648       0.012
   0.06057972  0.06057972  0.06057972       0.016
   0.08077296  0.06057972  0.06057972       0.023
   0.08077296  0.08077296  0.06057972       0.012
   0.08077296  0.08077296  0.08077296       0.002
 
 k-points in reciprocal lattice and weights: Automatic kpoint scheme                 
   0.00000000  0.00000000  0.00000000       0.002
   0.12500000  0.00000000  0.00000000       0.012
   0.25000000  0.00000000  0.00000000       0.012
   0.37500000  0.00000000  0.00000000       0.012
   0.50000000  0.00000000  0.00000000       0.006
   0.12500000  0.12500000  0.00000000       0.023
   0.25000000  0.12500000  0.00000000       0.023
  -0.12500000  0.25000000  0.00000000       0.023
   0.37500000  0.12500000  0.00000000       0.023
  -0.12500000  0.37500000  0.00000000       0.023
   0.50000000  0.12500000  0.00000000       0.012
  -0.12500000  0.50000000  0.00000000       0.012
   0.25000000  0.25000000  0.00000000       0.023
   0.37500000  0.25000000  0.00000000       0.023
  -0.25000000  0.37500000  0.00000000       0.023
   0.50000000  0.25000000  0.00000000       0.012
  -0.25000000  0.50000000  0.00000000       0.012
   0.37500000  0.37500000  0.00000000       0.023
   0.50000000  0.37500000  0.00000000       0.012
  -0.37500000  0.50000000  0.00000000       0.012
   0.50000000  0.50000000  0.00000000       0.006
   0.12500000  0.12500000  0.12500000       0.016
   0.25000000  0.12500000  0.12500000       0.047
   0.37500000  0.12500000  0.12500000       0.047
   0.50000000  0.12500000  0.12500000       0.023
   0.25000000  0.25000000  0.12500000       0.047
   0.37500000  0.25000000  0.12500000       0.047
  -0.25000000  0.37500000  0.12500000       0.047
   0.50000000  0.25000000  0.12500000       0.023
  -0.25000000  0.50000000  0.12500000       0.023
   0.37500000  0.37500000  0.12500000       0.047
   0.50000000  0.37500000  0.12500000       0.023
  -0.37500000  0.50000000  0.12500000       0.023
   0.50000000  0.50000000  0.12500000       0.012
   0.25000000  0.25000000  0.25000000       0.016
   0.37500000  0.25000000  0.25000000       0.047
   0.50000000  0.25000000  0.25000000       0.023
   0.37500000  0.37500000  0.25000000       0.047
   0.50000000  0.37500000  0.25000000       0.023
  -0.37500000  0.50000000  0.25000000       0.023
   0.50000000  0.50000000  0.25000000       0.012
   0.37500000  0.37500000  0.37500000       0.016
   0.50000000  0.37500000  0.37500000       0.023
   0.50000000  0.50000000  0.37500000       0.012
   0.50000000  0.50000000  0.50000000       0.002
 
 position of ions in fractional coordinates (direct lattice) 
   0.05189000  0.05189000  0.05189000
   0.94811000  0.94811000  0.94811000
   0.44811000  0.94811000  0.55189000
   0.55189000  0.05189000  0.44811000
   0.94811000  0.55189000  0.44811000
   0.05189000  0.44811000  0.55189000
   0.55189000  0.44811000  0.94811000
   0.44811000  0.55189000  0.05189000
 
 position of ions in cartesian coordinates  (Angst):
   0.32120896  0.32120896  0.32120896
   5.86898104  5.86898104  5.86898104
   2.77388604  5.86898104  3.41630396
   3.41630396  0.32120896  2.77388604
   5.86898104  3.41630396  2.77388604
   0.32120896  2.77388604  3.41630396
   3.41630396  2.77388604  5.86898104
   2.77388604  3.41630396  0.32120896
 


--------------------------------------------------------------------------------------------------------


 k-point     1 :   0.0000 0.0000 0.0000  plane waves:    6403
 k-point     2 :   0.1250 0.0000 0.0000  plane waves:    6411
 k-point     3 :   0.2500 0.0000 0.0000  plane waves:    6383
 k-point     4 :   0.3750 0.0000 0.0000  plane waves:    6395
 k-point     5 :   0.5000 0.0000 0.0000  plane waves:    6432
 k-point     6 :   0.1250 0.1250 0.0000  plane waves:    6399
 k-point     7 :   0.2500 0.1250 0.0000  plane waves:    6400
 k-point     8 :  -0.1250 0.2500 0.0000  plane waves:    6400
 k-point     9 :   0.3750 0.1250 0.0000  plane waves:    6398
 k-point    10 :  -0.1250 0.3750 0.0000  plane waves:    6398
 k-point    11 :   0.5000 0.1250 0.0000  plane waves:    6400
 k-point    12 :  -0.1250 0.5000 0.0000  plane waves:    6400
 k-point    13 :   0.2500 0.2500 0.0000  plane waves:    6408
 k-point    14 :   0.3750 0.2500 0.0000  plane waves:    6400
 k-point    15 :  -0.2500 0.3750 0.0000  plane waves:    6400
 k-point    16 :   0.5000 0.2500 0.0000  plane waves:    6380
 k-point    17 :  -0.2500 0.5000 0.0000  plane waves:    6380
 k-point    18 :   0.3750 0.3750 0.0000  plane waves:    6372
 k-point    19 :   0.5000 0.3750 0.0000  plane waves:    6360
 k-point    20 :  -0.3750 0.5000 0.0000  plane waves:    6360
 k-point    21 :   0.5000 0.5000 0.0000  plane waves:    6304
 k-point    22 :   0.1250 0.1250 0.1250  plane waves:    6385
 k-point    23 :   0.2500 0.1250 0.1250  plane waves:    6401
 k-point    24 :   0.3750 0.1250 0.1250  plane waves:    6409
 k-point    25 :   0.5000 0.1250 0.1250  plane waves:    6380
 k-point    26 :   0.2500 0.2500 0.1250  plane waves:    6385
 k-point    27 :   0.3750 0.2500 0.1250  plane waves:    6400
 k-point    28 :  -0.2500 0.3750 0.1250  plane waves:    6400
 k-point    29 :   0.5000 0.2500 0.1250  plane waves:    6380
 k-point    30 :  -0.2500 0.5000 0.1250  plane waves:    6380
 k-point    31 :   0.3750 0.3750 0.1250  plane waves:    6373
 k-point    32 :   0.5000 0.3750 0.1250  plane waves:    6382
 k-point    33 :  -0.3750 0.5000 0.1250  plane waves:    6382
 k-point    34 :   0.5000 0.5000 0.1250  plane waves:    6360
 k-point    35 :   0.2500 0.2500 0.2500  plane waves:    6388
 k-point    36 :   0.3750 0.2500 0.2500  plane waves:    6387
 k-point    37 :   0.5000 0.2500 0.2500  plane waves:    6364
 k-point    38 :   0.3750 0.3750 0.2500  plane waves:    6377
 k-point    39 :   0.5000 0.3750 0.2500  plane waves:    6386
 k-point    40 :  -0.3750 0.5000 0.2500  plane waves:    6386
 k-point    41 :   0.5000 0.5000 0.2500  plane waves:    6360
 k-point    42 :   0.3750 0.3750 0.3750  plane waves:    6392
 k-point    43 :   0.5000 0.3750 0.3750  plane waves:    6386
 k-point    44 :   0.5000 0.5000 0.3750  plane waves:    6356
 k-point    45 :   0.5000 0.5000 0.5000  plane waves:    6272

 maximum and minimum number of plane-waves per node :      6432     6272

 maximum number of plane-waves:      6432
 maximum index in each direction: 
   IXMAX=   11   IYMAX=   11   IZMAX=   11
   IXMIN=  -12   IYMIN=  -12   IZMIN=  -11


 serial   3D FFT for wavefunctions
 parallel 3D FFT for charge:
    minimum data exchange during FFTs selected (reduces bandwidth)


 total amount of memory used by VASP MPI-rank0    57002. kBytes
=======================================================================

   base      :      30000. kBytes
   nonl-proj :      19347. kBytes
   fftplans  :        538. kBytes
   grid      :       2393. kBytes
   one-center:         24. kBytes
   wavefun   :       4700. kBytes
 
     INWAV:  cpu time      0.5597: real time      0.6846
 Broyden mixing: mesh for mixing (old mesh)
   NGX = 23   NGY = 23   NGZ = 23
  (NGX  = 72   NGY  = 72   NGZ  = 72)
  gives a total of  12167 points

 charge density for first step will be calculated from the start-wavefunctions


--------------------------------------------------------------------------------------------------------


 Maximum index for augmentation-charges          170 (set IRDMAX)


--------------------------------------------------------------------------------------------------------


 initial charge from wavefunction
 First call to EWALD:  gamma=   0.286
 Maximum number of real-space cells 3x 3x 3
 Maximum number of reciprocal cells 3x 3x 3

    FEWALD:  cpu time      0.0014: real time      0.0014


--------------------------------------- Ionic step        1  -------------------------------------------




--------------------------------------- Iteration      1(   1)  ---------------------------------------


    POTLOK:  cpu time      0.0080: real time      0.0100
    SETDIJ:  cpu time      0.0015: real time      0.0016
     EDDAV:  cpu time      1.9044: real time      1.9044
       DOS:  cpu time      0.0023: real time      0.0025
    CHARGE:  cpu time      0.0219: real time      0.0219
    MIXING:  cpu time      0.0009: real time      0.0011
    --------------------------------------------
      LOOP:  cpu time      1.9391: real time      1.9416

 eigenvalue-minimisations  :  6864
 total energy-change (2. order) :-0.6664751E+02  (-0.2117735E-05)
 number of electron      40.0000011 magnetization 
 augmentation part        1.3988314 magnetization 

 Broyden mixing:
  rms(total) = 0.45987E-03    rms(broyden)= 0.45976E-03
  rms(prec ) = 0.76630E-03
  weight for this iteration     100.00

 Free energy of the ion-electron system (eV)
  ---------------------------------------------------
  alpha Z        PSCENC =        29.07161185
  Ewald energy   TEWEN  =      -779.22376196
  -Hartree energ DENC   =     -1084.53007512
  -exchange      EXHF   =         0.00000000
  -V(xc)+E(xc)   XCENC  =       156.88799933
  PAW double counting   =      3939.77727110    -3950.31839765
  entropy T*S    EENTRO =        -0.00000000
  eigenvalues    EBANDS =      -494.60071652
  atomic energy  EATOM  =      2116.28856302
  Solvation  Ediel_sol  =         0.00000000
  ---------------------------------------------------
  free energy    TOTEN  =       -66.64750596 eV

  energy without entropy =      -66.64750596  energy(sigma->0) =      -66.64750596


--------------------------------------------------------------------------------------------------------




--------------------------------------- Iteration      1(   2)  ---------------------------------------


    POTLOK:  cpu time      0.0081: real time      0.0088
    SETDIJ:  cpu time      0.0012: real time      0.0012
     EDDAV:  cpu time      0.7239: real time      0.7238
       DOS:  cpu time      0.0003: real time      0.0003
    --------------------------------------------
      LOOP:  cpu time      0.7335: real time      0.7341

 eigenvalue-minimisations  :  2928
 total energy-change (2. order) : 0.7522272E-06  (-0.1264356E-06)
 number of electron      40.0000011 magnetization 
 augmentation part        1.3988314 magnetization 

 Free energy of the ion-electron system (eV)
  ---------------------------------------------------
  alpha Z        PSCENC =        29.07161185
  Ewald energy   TEWEN  =      -779.22376196
  -Hartree energ DENC   =     -1084.50493454
  -exchange      EXHF   =         0.00000000
  -V(xc)+E(xc)   XCENC  =       156.88628349
  PAW double counting   =      3939.75107557    -3950.29201751
  entropy T*S    EENTRO =        -0.00000000
  eigenvalues    EBANDS =      -494.62432511
  atomic energy  EATOM  =      2116.28856302
  Solvation  Ediel_sol  =         0.00000000
  ---------------------------------------------------
  free energy    TOTEN  =       -66.64750520 eV

  energy without entropy =      -66.64750520  energy(sigma->0) =      -66.64750520


--------------------------------------------------------------------------------------------------------




 average (electrostatic) potential at core
  the test charge radii are     0.7089
  (the norm of the test charge is              1.0000)
       1 -73.5309       2 -73.5309       3 -73.5309       4 -73.5309       5 -73.5309
       6 -73.5309       7 -73.5309       8 -73.5309
 
 
 
 E-fermi :  -7.1183     XC(G=0):  -5.5398     alpha+bet : -2.9304

 val. band max:       -7.4348486389   @ k =   0.5000   0.0000   0.0000
 cond. band min:       0.0739677109   @ k =   0.0000   0.0000   0.0000
 fundamental gap:      7.5088163498
 Fermi energy:        -7.1183444980

 k-point     1 :       0.0000    0.0000    0.0000
  band No.  band energies     occupation 
      1     -25.5622      2.00000
      2     -25.5429      2.00000
      3     -25.5429      2.00000
      4     -25.5429      2.00000
      5     -10.9381      2.00000
      6     -10.9381      2.00000
      7     -10.9381      2.00000
      8     -10.8744      2.00000
      9      -8.9916      2.00000
     10      -8.9916      2.00000
     11      -8.9916      2.00000
     12      -8.8874      2.00000
     13      -8.8874      2.00000
     14      -8.8060      2.00000
     15      -8.8060      2.00000
     16      -8.8060      2.00000
     17      -7.9291      2.00000
     18      -7.4433      2.00000
     19      -7.4433      2.00000
     20      -7.4433      2.00000
     21       0.0740      0.00000
     22       0.0740      0.00000
     23       0.0740      0.00000
     24       0.6110      0.00000
     25       0.6110      0.00000
     26       0.6110      0.00000
     27       0.7798      0.00000
     28       0.7798      0.00000
     29       2.7236      0.00000
     30       5.2721      0.00000
     31       5.2721      0.00000
     32       5.2721      0.00000
     33       6.1216      0.00000
     34       6.1216      0.00000
     35       6.1216      0.00000
     36       6.8704      0.00000
     37       6.8704      0.00000
     38       6.8704      0.00000
     39       8.6397      0.00000
     40       8.6397      0.00000
     41       9.0787      0.00000
     42       9.0787      0.00000
     43       9.0787      0.00000
     44       9.6922      0.00000
     45       9.6922      0.00000
     46       9.6922      0.00000
     47      10.0813      0.00000
     48      10.1956      0.00000

 k-point     2 :       0.1250    0.0000    0.0000
  band No.  band energies     occupation 
      1     -25.5614      2.00000
      2     -25.5436      2.00000
      3     -25.5429      2.00000
      4     -25.5429      2.00000
      5     -10.9378      2.00000
      6     -10.9378      2.00000
      7     -10.9357      2.00000
      8     -10.8768      2.00000
      9      -8.9916      2.00000
     10      -8.9887      2.00000
     11      -8.9878      2.00000
     12      -8.8923      2.00000
     13      -8.8849      2.00000
     14      -8.8188      2.00000
     15      -8.8115      2.00000
     16      -8.8097      2.00000
     17      -7.9019      2.00000
     18      -7.4564      2.00000
     19      -7.4421      2.00000
     20      -7.4420      2.00000
     21       0.0913      0.00000
     22       0.0931      0.00000
     23       0.1039      0.00000
     24       0.6014      0.00000
     25       0.6033      0.00000
     26       0.6171      0.00000
     27       0.7599      0.00000
     28       0.7731      0.00000
     29       2.7562      0.00000
     30       4.8868      0.00000
     31       5.2771      0.00000
     32       5.3150      0.00000
     33       6.1020      0.00000
     34       6.1351      0.00000
     35       6.5456      0.00000
     36       6.6927      0.00000
     37       6.7675      0.00000
     38       6.9085      0.00000
     39       8.5632      0.00000
     40       8.7937      0.00000
     41       8.8470      0.00000
     42       9.0916      0.00000
     43       9.2267      0.00000
     44       9.2333      0.00000
     45       9.7360      0.00000
     46       9.8908      0.00000
     47      10.2707      0.00000
     48      10.8074      0.00000

 k-point     3 :       0.2500    0.0000    0.0000
  band No.  band energies     occupation 
      1     -25.5593      2.00000
      2     -25.5456      2.00000
      3     -25.5429      2.00000
      4     -25.5429      2.00000
      5     -10.9372      2.00000
      6     -10.9369      2.00000
      7     -10.9287      2.00000
      8     -10.8837      2.00000
      9      -8.9904      2.00000
     10      -8.9798      2.00000
     11      -8.9787      2.00000
     12      -8.9059      2.00000
     13      -8.8776      2.00000
     14      -8.8469      2.00000
     15      -8.8267      2.00000
     16      -8.8199      2.00000
     17      -7.8306      2.00000
     18      -7.4955      2.00000
     19      -7.4391      2.00000
     20      -7.4390      2.00000
     21       0.1372      0.00000
     22       0.1426      0.00000
     23       0.1888      0.00000
     24       0.5752      0.00000
     25       0.5809      0.00000
     26       0.6348      0.00000
     27       0.6978      0.00000
     28       0.7541      0.00000
     29       2.8642      0.00000
     30       4.3175      0.00000
     31       5.3082      0.00000
     32       5.4392      0.00000
     33       6.0385      0.00000
     34       6.1562      0.00000
     35       6.3494      0.00000
     36       6.4785      0.00000
     37       7.0258      0.00000
     38       7.2924      0.00000
     39       8.2970      0.00000
     40       8.5493      0.00000
     41       8.7707      0.00000
     42       9.1197      0.00000
     43       9.1572      0.00000
     44       9.3910      0.00000
     45      10.0744      0.00000
     46      10.0822      0.00000
     47      10.7936      0.00000
     48      10.8176      0.00000

 k-point     4 :       0.3750    0.0000    0.0000
  band No.  band energies     occupation 
      1     -25.5561      2.00000
      2     -25.5487      2.00000
      3     -25.5429      2.00000
      4     -25.5429      2.00000
      5     -10.9365      2.00000
      6     -10.9362      2.00000
      7     -10.9185      2.00000
      8     -10.8941      2.00000
      9      -8.9856      2.00000
     10      -8.9725      2.00000
     11      -8.9652      2.00000
     12      -8.9252      2.00000
     13      -8.8680      2.00000
     14      -8.8659      2.00000
     15      -8.8474      2.00000
     16      -8.8346      2.00000
     17      -7.7374      2.00000
     18      -7.5588      2.00000
     19      -7.4360      2.00000
     20      -7.4360      2.00000
     21       0.1922      0.00000
     22       0.1985      0.00000
     23       0.3141      0.00000
     24       0.5429      0.00000
     25       0.5496      0.00000
     26       0.5932      0.00000
     27       0.6614      0.00000
     28       0.7260      0.00000
     29       3.0683      0.00000
     30       3.8027      0.00000
     31       5.3996      0.00000
     32       5.6338      0.00000
     33       5.8395      0.00000
     34       6.1551      0.00000
     35       6.1578      0.00000
     36       6.1750      0.00000
     37       7.2294      0.00000
     38       7.8963      0.00000
     39       8.0595      0.00000
     40       8.3989      0.00000
     41       8.5415      0.00000
     42       9.1141      0.00000
     43       9.4076      0.00000
     44       9.5139      0.00000
     45       9.9539      0.00000
     46      10.0455      0.00000
     47      10.8113      0.00000
     48      11.5461      0.00000

 k-point     5 :       0.5000    0.0000    0.0000
  band No.  band energies     occupation 
      1     -25.5525      2.00000
      2     -25.5525      2.00000
      3     -25.5429      2.00000
      4     -25.5429      2.00000
      5     -10.9361      2.00000
      6     -10.9361      2.00000
      7     -10.9064      2.00000
      8     -10.9064      2.00000
      9      -8.9771      2.00000
     10      -8.9771      2.00000
     11      -8.9462      2.00000
     12      -8.9462      2.00000
     13      -8.8657      2.00000
     14      -8.8657      2.00000
     15      -8.8509      2.00000
     16      -8.8509      2.00000
     17      -7.6422      2.00000
     18      -7.6422      2.00000
     19      -7.4348      2.00000
     20      -7.4348      2.00000
     21       0.2220      0.00000
     22       0.2220      0.00000
     23       0.4576      0.00000
     24       0.4576      0.00000
     25       0.5294      0.00000
     26       0.5294      0.00000
     27       0.6934      0.00000
     28       0.6934      0.00000
     29       3.3815      0.00000
     30       3.3815      0.00000
     31       5.5789      0.00000
     32       5.5789      0.00000
     33       5.8845      0.00000
     34       5.8845      0.00000
     35       6.1391      0.00000
     36       6.1391      0.00000
     37       7.5227      0.00000
     38       7.5227      0.00000
     39       8.4107      0.00000
     40       8.4107      0.00000
     41       8.7886      0.00000
     42       8.7886      0.00000
     43       9.4621      0.00000
     44       9.4621      0.00000
     45       9.8347      0.00000
     46       9.8347      0.00000
     47      11.7288      0.00000
     48      11.7288      0.00000

 k-point     6 :       0.1250    0.1250    0.0000
  band No.  band energies     occupation 
      1     -25.5607      2.00000
      2     -25.5436      2.00000
      3     -25.5436      2.00000
      4     -25.5429      2.00000
      5     -10.9377      2.00000
      6     -10.9355      2.00000
      7     -10.9354      2.00000
      8     -10.8792      2.00000
      9      -8.9959      2.00000
     10      -8.9891      2.00000
     11      -8.9766      2.00000
     12      -8.8936      2.00000
     13      -8.8860      2.00000
     14      -8.8361      2.00000
     15      -8.8142      2.00000
     16      -8.8085      2.00000
     17      -7.8771      2.00000
     18      -7.4549      2.00000
     19      -7.4549      2.00000
     20      -7.4415      2.00000
     21       0.1071      0.00000
     22       0.1223      0.00000
     23       0.1237      0.00000
     24       0.5934      0.00000
     25       0.6068      0.00000
     26       0.6103      0.00000
     27       0.7487      0.00000
     28       0.7593      0.00000
     29       2.7889      0.00000
     30       4.9017      0.00000
     31       4.9040      0.00000
     32       5.3545      0.00000
     33       6.0388      0.00000
     34       6.5385      0.00000
     35       6.5405      0.00000
     36       6.6010      0.00000
     37       6.7895      0.00000
     38       6.8097      0.00000
     39       8.6228      0.00000
     40       8.7518      0.00000
     41       8.8480      0.00000
     42       8.8753      0.00000
     43       9.1611      0.00000
     44       9.3099      0.00000
     45       9.8205      0.00000
     46      10.0759      0.00000
     47      10.4547      0.00000
     48      11.0285      0.00000

 k-point     7 :       0.2500    0.1250    0.0000
  band No.  band energies     occupation 
      1     -25.5587      2.00000
      2     -25.5456      2.00000
      3     -25.5435      2.00000
      4     -25.5429      2.00000
      5     -10.9369      2.00000
      6     -10.9354      2.00000
      7     -10.9290      2.00000
      8     -10.8861      2.00000
      9      -8.9955      2.00000
     10      -8.9896      2.00000
     11      -8.9583      2.00000
     12      -8.9034      2.00000
     13      -8.8824      2.00000
     14      -8.8645      2.00000
     15      -8.8262      2.00000
     16      -8.8140      2.00000
     17      -7.8117      2.00000
     18      -7.4929      2.00000
     19      -7.4509      2.00000
     20      -7.4408      2.00000
     21       0.1531      0.00000
     22       0.1698      0.00000
     23       0.2057      0.00000
     24       0.5736      0.00000
     25       0.5784      0.00000
     26       0.6267      0.00000
     27       0.6923      0.00000
     28       0.7391      0.00000
     29       2.8971      0.00000
     30       4.3403      0.00000
     31       4.9618      0.00000
     32       5.4706      0.00000
     33       5.8325      0.00000
     34       6.3720      0.00000
     35       6.5175      0.00000
     36       6.5858      0.00000
     37       6.9367      0.00000
     38       7.2251      0.00000
     39       8.2870      0.00000
     40       8.5541      0.00000
     41       8.6572      0.00000
     42       9.0948      0.00000
[...]
      6     -10.9316      2.00000
      7     -10.9234      2.00000
      8     -10.9234      2.00000
      9      -8.9970      2.00000
     10      -8.9970      2.00000
     11      -8.9711      2.00000
     12      -8.9711      2.00000
     13      -8.8368      2.00000
     14      -8.8368      2.00000
     15      -8.8137      2.00000
     16      -8.8137      2.00000
     17      -7.5735      2.00000
     18      -7.5735      2.00000
     19      -7.5163      2.00000
     20      -7.5163      2.00000
     21       0.4057      0.00000
     22       0.4057      0.00000
     23       0.4884      0.00000
     24       0.4884      0.00000
     25       0.5307      0.00000
     26       0.5307      0.00000
     27       0.5938      0.00000
     28       0.5938      0.00000
     29       3.8169      0.00000
     30       3.8169      0.00000
     31       4.3854      0.00000
     32       4.3854      0.00000
     33       5.5202      0.00000
     34       5.5202      0.00000
     35       6.0566      0.00000
     36       6.0566      0.00000
     37       8.1318      0.00000
     38       8.1318      0.00000
     39       8.7432      0.00000
     40       8.7432      0.00000
     41       9.7276      0.00000
     42       9.7276      0.00000
     43       9.9790      0.00000
     44       9.9790      0.00000
     45      10.8805      0.00000
     46      10.8805      0.00000
     47      11.4294      0.00000
     48      11.4294      0.00000

 k-point    40 :      -0.3750    0.5000    0.2500
  band No.  band energies     occupation 
      1     -25.5489      2.00000
      2     -25.5489      2.00000
      3     -25.5463      2.00000
      4     -25.5463      2.00000
      5     -10.9316      2.00000
      6     -10.9316      2.00000
      7     -10.9235      2.00000
      8     -10.9235      2.00000
      9      -8.9952      2.00000
     10      -8.9952      2.00000
     11      -8.9735      2.00000
     12      -8.9735      2.00000
     13      -8.8347      2.00000
     14      -8.8347      2.00000
     15      -8.8152      2.00000
     16      -8.8152      2.00000
     17      -7.5734      2.00000
     18      -7.5734      2.00000
     19      -7.5163      2.00000
     20      -7.5163      2.00000
     21       0.4036      0.00000
     22       0.4036      0.00000
     23       0.4905      0.00000
     24       0.4905      0.00000
     25       0.5345      0.00000
     26       0.5345      0.00000
     27       0.5899      0.00000
     28       0.5899      0.00000
     29       3.8173      0.00000
     30       3.8173      0.00000
     31       4.3846      0.00000
     32       4.3846      0.00000
     33       5.5223      0.00000
     34       5.5223      0.00000
     35       6.0553      0.00000
     36       6.0553      0.00000
     37       8.1162      0.00000
     38       8.1162      0.00000
     39       8.7805      0.00000
     40       8.7805      0.00000
     41       9.6584      0.00000
     42       9.6584      0.00000
     43      10.0253      0.00000
     44      10.0253      0.00000
     45      10.9502      0.00000
     46      10.9502      0.00000
     47      11.2812      0.00000
     48      11.2812      0.00000

 k-point    41 :       0.5000    0.5000    0.2500
  band No.  band energies     occupation 
      1     -25.5475      2.00000
      2     -25.5475      2.00000
      3     -25.5475      2.00000
      4     -25.5475      2.00000
      5     -10.9283      2.00000
      6     -10.9283      2.00000
      7     -10.9283      2.00000
      8     -10.9283      2.00000
      9      -8.9870      2.00000
     10      -8.9870      2.00000
     11      -8.9870      2.00000
     12      -8.9870      2.00000
     13      -8.8206      2.00000
     14      -8.8206      2.00000
     15      -8.8206      2.00000
     16      -8.8206      2.00000
     17      -7.5460      2.00000
     18      -7.5460      2.00000
     19      -7.5460      2.00000
     20      -7.5460      2.00000
     21       0.4538      0.00000
     22       0.4538      0.00000
     23       0.4538      0.00000
     24       0.4538      0.00000
     25       0.5617      0.00000
     26       0.5617      0.00000
     27       0.5617      0.00000
     28       0.5617      0.00000
     29       4.0720      0.00000
     30       4.0720      0.00000
     31       4.0720      0.00000
     32       4.0720      0.00000
     33       5.7360      0.00000
     34       5.7360      0.00000
     35       5.7360      0.00000
     36       5.7360      0.00000
     37       8.4905      0.00000
     38       8.4905      0.00000
     39       8.4905      0.00000
     40       8.4905      0.00000
     41      10.0791      0.00000
     42      10.0791      0.00000
     43      10.0791      0.00000
     44      10.0791      0.00000
     45      11.0212      0.00000
     46      11.0212      0.00000
     47      11.0212      0.00000
     48      11.0212      0.00000

 k-point    42 :       0.3750    0.3750    0.3750
  band No.  band energies     occupation 
      1     -25.5497      2.00000
      2     -25.5469      2.00000
      3     -25.5469      2.00000
      4     -25.5469      2.00000
      5     -10.9318      2.00000
      6     -10.9318      2.00000
      7     -10.9301      2.00000
      8     -10.9225      2.00000
      9      -9.0063      2.00000
     10      -8.9830      2.00000
     11      -8.9830      2.00000
     12      -8.9794      2.00000
     13      -8.8276      2.00000
     14      -8.8276      2.00000
     15      -8.8058      2.00000
     16      -8.8058      2.00000
     17      -7.5960      2.00000
     18      -7.5337      2.00000
     19      -7.5337      2.00000
     20      -7.5305      2.00000
     21       0.3921      0.00000
     22       0.4557      0.00000
     23       0.4557      0.00000
     24       0.4770      0.00000
     25       0.5459      0.00000
     26       0.5459      0.00000
     27       0.5980      0.00000
     28       0.5980      0.00000
     29       3.7174      0.00000
     30       4.2432      0.00000
     31       4.2432      0.00000
     32       4.3947      0.00000
     33       5.3332      0.00000
     34       5.5065      0.00000
     35       5.5065      0.00000
     36       5.9916      0.00000
     37       8.5737      0.00000
     38       8.6509      0.00000
     39       8.6509      0.00000
     40       9.6612      0.00000
     41       9.6643      0.00000
     42       9.6643      0.00000
     43      10.0288      0.00000
     44      10.0288      0.00000
     45      10.1785      0.00000
     46      11.0747      0.00000
     47      11.0747      0.00000
     48      11.2156      0.00000

 k-point    43 :       0.5000    0.3750    0.3750
  band No.  band energies     occupation 
      1     -25.5483      2.00000
      2     -25.5483      2.00000
      3     -25.5469      2.00000
      4     -25.5469      2.00000
      5     -10.9322      2.00000
      6     -10.9322      2.00000
      7     -10.9278      2.00000
      8     -10.9278      2.00000
      9      -8.9970      2.00000
     10      -8.9970      2.00000
     11      -8.9838      2.00000
     12      -8.9838      2.00000
     13      -8.8181      2.00000
     14      -8.8181      2.00000
     15      -8.8056      2.00000
     16      -8.8056      2.00000
     17      -7.5659      2.00000
     18      -7.5659      2.00000
     19      -7.5346      2.00000
     20      -7.5346      2.00000
     21       0.4295      0.00000
     22       0.4295      0.00000
     23       0.4741      0.00000
     24       0.4741      0.00000
     25       0.5527      0.00000
     26       0.5527      0.00000
     27       0.5894      0.00000
     28       0.5894      0.00000
     29       3.9757      0.00000
     30       3.9757      0.00000
     31       4.3471      0.00000
     32       4.3471      0.00000
     33       5.3118      0.00000
     34       5.3118      0.00000
     35       5.6680      0.00000
     36       5.6680      0.00000
     37       8.7492      0.00000
     38       8.7492      0.00000
     39       9.3040      0.00000
     40       9.3040      0.00000
     41       9.7792      0.00000
     42       9.7792      0.00000
     43       9.9690      0.00000
     44       9.9690      0.00000
     45      10.8061      0.00000
     46      10.8061      0.00000
     47      11.2174      0.00000
     48      11.2175      0.00000

 k-point    44 :       0.5000    0.5000    0.3750
  band No.  band energies     occupation 
      1     -25.5475      2.00000
      2     -25.5475      2.00000
      3     -25.5475      2.00000
      4     -25.5475      2.00000
      5     -10.9310      2.00000
      6     -10.9310      2.00000
      7     -10.9310      2.00000
      8     -10.9310      2.00000
      9      -8.9927      2.00000
     10      -8.9927      2.00000
     11      -8.9927      2.00000
     12      -8.9927      2.00000
     13      -8.8065      2.00000
     14      -8.8065      2.00000
     15      -8.8065      2.00000
     16      -8.8065      2.00000
     17      -7.5525      2.00000
     18      -7.5525      2.00000
     19      -7.5525      2.00000
     20      -7.5525      2.00000
     21       0.4528      0.00000
     22       0.4528      0.00000
     23       0.4528      0.00000
     24       0.4528      0.00000
     25       0.5758      0.00000
     26       0.5758      0.00000
     27       0.5758      0.00000
     28       0.5758      0.00000
     29       4.1779      0.00000
     30       4.1779      0.00000
     31       4.1779      0.00000
     32       4.1779      0.00000
     33       5.3904      0.00000
     34       5.3904      0.00000
     35       5.3904      0.00000
     36       5.3904      0.00000
     37       9.2243      0.00000
     38       9.2243      0.00000
     39       9.2243      0.00000
     40       9.2243      0.00000
     41      10.0448      0.00000
     42      10.0448      0.00000
     43      10.0448      0.00000
     44      10.0448      0.00000
     45      10.6964      0.00000
     46      10.6964      0.00000
     47      10.6964      0.00000
     48      10.6964      0.00000

 k-point    45 :       0.5000    0.5000    0.5000
  band No.  band energies     occupation 
      1     -25.5474      2.00000
      2     -25.5474      2.00000
      3     -25.5474      2.00000
      4     -25.5474      2.00000
      5     -10.9320      2.00000
      6     -10.9320      2.00000
      7     -10.9320      2.00000
      8     -10.9320      2.00000
      9      -8.9948      2.00000
     10      -8.9948      2.00000
     11      -8.9948      2.00000
     12      -8.9948      2.00000
     13      -8.8009      2.00000
     14      -8.8009      2.00000
     15      -8.8009      2.00000
     16      -8.8009      2.00000
     17      -7.5550      2.00000
     18      -7.5550      2.00000
     19      -7.5550      2.00000
     20      -7.5550      2.00000
     21       0.4519      0.00000
     22       0.4519      0.00000
     23       0.4519      0.00000
     24       0.4519      0.00000
     25       0.5825      0.00000
     26       0.5825      0.00000
     27       0.5825      0.00000
     28       0.5825      0.00000
     29       4.2354      0.00000
     30       4.2354      0.00000
     31       4.2354      0.00000
     32       4.2354      0.00000
     33       5.2494      0.00000
     34       5.2494      0.00000
     35       5.2494      0.00000
     36       5.2494      0.00000
     37       9.8834      0.00000
     38       9.8834      0.00000
     39       9.8834      0.00000
     40       9.8834      0.00000
     41       9.9494      0.00000
     42       9.9494      0.00000
     43       9.9494      0.00000
     44       9.9494      0.00000
     45      10.1967      0.00000
     46      10.1967      0.00000
     47      10.1967      0.00000
     48      10.1967      0.00000


--------------------------------------------------------------------------------------------------------


 soft charge-density along one line, spin component           1
         0         1         2         3         4         5         6         7         8         9
 total charge-density along one line
 
 pseudopotential strength for first ion, spin component:           1
 13.892  16.681   0.009   0.009   0.009   0.025   0.025   0.025
 16.681  20.032   0.011   0.011   0.011   0.030   0.030   0.030
  0.009   0.011  -7.285  -0.022  -0.022 -10.088  -0.036  -0.036
  0.009   0.011  -0.022  -7.285  -0.022  -0.036 -10.088  -0.036
  0.009   0.011  -0.022  -0.022  -7.285  -0.036  -0.036 -10.088
  0.025   0.030 -10.088  -0.036  -0.036 -13.318  -0.057  -0.057
  0.025   0.030  -0.036 -10.088  -0.036  -0.057 -13.318  -0.057
  0.025   0.030  -0.036  -0.036 -10.088  -0.057  -0.057 -13.318
 total augmentation occupancy for first ion, spin component:           1
  7.470  -3.739  -1.586  -1.586  -1.586   0.530   0.530   0.530
 -3.739   2.358   1.298   1.298   1.298  -0.382  -0.382  -0.382
 -1.586   1.298   2.248   0.480   0.480  -0.421  -0.129  -0.129
 -1.586   1.298   0.480   2.248   0.480  -0.129  -0.421  -0.129
 -1.586   1.298   0.480   0.480   2.248  -0.129  -0.129  -0.421
  0.530  -0.382  -0.421  -0.129  -0.129   0.098   0.050   0.050
  0.530  -0.382  -0.129  -0.421  -0.129   0.050   0.098   0.050
  0.530  -0.382  -0.129  -0.129  -0.421   0.050   0.050   0.098


------------------------ aborting loop because EDIFF is reached ----------------------------------------


    CHARGE:  cpu time      0.0212: real time      0.0212
    FORLOC:  cpu time      0.0004: real time      0.0005
    FORNL :  cpu time      0.1439: real time      0.1440
    STRESS:  cpu time      0.8858: real time      0.8857
    FORCOR:  cpu time      0.0063: real time      0.0064
    FORHAR:  cpu time      0.0014: real time      0.0015
    MIXING:  cpu time      0.0007: real time      0.0007
    OFIELD:  cpu time      0.0000: real time      0.0001

  FORCE on cell =-STRESS in cart. coord.  units (eV):
  Direction    XX          YY          ZZ          XY          YZ          ZX
  --------------------------------------------------------------------------------------
  Alpha Z    29.07161    29.07161    29.07161
  Ewald    -259.74171  -259.74171  -259.74171    -0.00000     0.00000     0.00000
  Hartree   361.49168   361.49168   361.49168     0.00000    -0.00000    -0.00000
  E(xc)    -167.61178  -167.61178  -167.61178     0.00000    -0.00000    -0.00000
  Local    -642.63167  -642.63167  -642.63167    -0.00000    -0.00000     0.00000
  n-local   -81.55734   -81.56581   -81.58532    -0.00039    -0.00068    -0.00016
  augment     5.56936     5.56936     5.56936    -0.00000     0.00000    -0.00000
  Kinetic   755.17958   755.23019   755.37951    -0.00080    -0.00062    -0.00027
  Fock        0.00000     0.00000     0.00000     0.00000     0.00000     0.00000
  -------------------------------------------------------------------------------------
  Total      -0.15891    -0.15891    -0.15891    -0.00000    -0.00000    -0.00000
  in kB      -1.07338    -1.07338    -1.07338    -0.00000    -0.00000    -0.00000
  external pressure =       -1.07 kB  Pullay stress =        0.00 kB


 VOLUME and BASIS-vectors are now :
 -----------------------------------------------------------------------------
  energy-cutoff  :      520.00
  volume of cell :      237.20
      direct lattice vectors                 reciprocal lattice vectors
     6.190190000  0.000000000  0.000000000     0.161545930 -0.000000000  0.000000000
     0.000000000  6.190190000  0.000000000     0.000000000  0.161545930  0.000000000
     0.000000000  0.000000000  6.190190000    -0.000000000 -0.000000000  0.161545930

  length of vectors
     6.190190000  6.190190000  6.190190000     0.161545930  0.161545930  0.161545930


 FORCES acting on ions
    electron-ion (+dipol)            ewald-force                    non-local-force                 convergence-correction
 -----------------------------------------------------------------------------------------------
   -.127E+03 -.127E+03 -.127E+03   0.153E+03 0.153E+03 0.153E+03   -.263E+02 -.263E+02 -.263E+02   -.332E-03 -.332E-03 -.332E-03
   0.127E+03 0.127E+03 0.127E+03   -.153E+03 -.153E+03 -.153E+03   0.263E+02 0.263E+02 0.263E+02   0.332E-03 0.332E-03 0.332E-03
   0.127E+03 0.127E+03 -.127E+03   -.153E+03 -.153E+03 0.153E+03   0.263E+02 0.263E+02 -.263E+02   0.332E-03 0.332E-03 -.332E-03
   -.127E+03 -.127E+03 0.127E+03   0.153E+03 0.153E+03 -.153E+03   -.263E+02 -.263E+02 0.263E+02   -.332E-03 -.332E-03 0.332E-03
   0.127E+03 -.127E+03 0.127E+03   -.153E+03 0.153E+03 -.153E+03   0.263E+02 -.263E+02 0.263E+02   0.332E-03 -.332E-03 0.332E-03
   -.127E+03 0.127E+03 -.127E+03   0.153E+03 -.153E+03 0.153E+03   -.263E+02 0.263E+02 -.263E+02   -.332E-03 0.332E-03 -.332E-03
   -.127E+03 0.127E+03 0.127E+03   0.153E+03 -.153E+03 -.153E+03   -.263E+02 0.263E+02 0.263E+02   -.332E-03 0.332E-03 0.332E-03
   0.127E+03 -.127E+03 -.127E+03   -.153E+03 0.153E+03 0.153E+03   0.263E+02 -.263E+02 -.263E+02   0.332E-03 -.332E-03 -.332E-03
 -----------------------------------------------------------------------------------------------
   0.117E-11 0.651E-12 -.730E-11   0.000E+00 0.000E+00 0.000E+00   0.000E+00 0.000E+00 -.355E-14   0.314E-13 -.453E-14 -.500E-13
 
 
 POSITION                                       TOTAL-FORCE (eV/Angst)
 -----------------------------------------------------------------------------------
      0.32121      0.32121      0.32121         0.038233      0.038233      0.038233
      5.86898      5.86898      5.86898        -0.038233     -0.038233     -0.038233
      2.77389      5.86898      3.41630        -0.038233     -0.038233      0.038233
      3.41630      0.32121      2.77389         0.038233      0.038233     -0.038233
      5.86898      3.41630      2.77389        -0.038233      0.038233     -0.038233
      0.32121      2.77389      3.41630         0.038233     -0.038233      0.038233
      3.41630      2.77389      5.86898         0.038233     -0.038233     -0.038233
      2.77389      3.41630      0.32121        -0.038233      0.038233      0.038233
 -----------------------------------------------------------------------------------
    total drift:                                0.000000      0.000000     -0.000000


--------------------------------------------------------------------------------------------------------



  FREE ENERGIE OF THE ION-ELECTRON SYSTEM (eV)
  ---------------------------------------------------
  free  energy   TOTEN  =       -66.64750520 eV

  energy  without entropy=      -66.64750520  energy(sigma->0) =      -66.64750520
 


--------------------------------------------------------------------------------------------------------


    POTLOK:  cpu time      0.0081: real time      0.0081


--------------------------------------------------------------------------------------------------------


 writing wavefunctions
     LOOP+:  cpu time     33.6591: real time     33.6808
    4ORBIT:  cpu time      0.0000: real time      0.0000

 total amount of memory used by VASP MPI-rank0    57002. kBytes
=======================================================================

   base      :      30000. kBytes
   nonl-proj :      19347. kBytes
   fftplans  :        538. kBytes
   grid      :       2393. kBytes
   one-center:         24. kBytes
   wavefun   :       4700. kBytes
 
  
  
 General timing and accounting informations for this job:
 ========================================================
  
                  Total CPU time used (sec):       35.063
                            User time (sec):       34.359
                          System time (sec):        0.704
                         Elapsed time (sec):       35.516
  
                   Maximum memory used (kb):      260508.
                   Average memory used (kb):          N/A
  
                          Minor page faults:        27889
                          Major page faults:            0
                 Voluntary context switches:         4493
