<?xml version="1.0" encoding="ISO-8859-1"?>
<modeling>
 <generator>
  <i name="program" type="string">vasp </i>
  <i name="version" type="string">6.4.3  </i>
  <i name="subversion" type="string">19Mar24 (build Jun 26 2024 13:02:28) complex                          parallel </i>
  <i name="platform" type="string">LinuxIFC </i>
  <i name="date" type="string">2025 08 08 </i>
  <i name="time" type="string">18:51:32 </i>
 </generator>
 <incar>
  <i type="string" name="SYSTEM">N</i>
  <i type="int" name="IBRION">    -1</i>
  <i type="int" name="ISYM">     2</i>
  <i name="ENCUT">    520.00000000</i>
  <i type="int" name="ISMEAR">     0</i>
  <i name="SIGMA">      0.05000000</i>
  <i type="logical" name="LWAVE"> T  </i>
  <i type="logical" name="LCHARG"> T  </i>
 </incar>
 <primitive_cell>
  <structure name="primitive_cell" >
   <crystal>
    <varray name="basis" >
     <v>       6.19019000       0.00000000       0.00000000 </v>
     <v>       0.00000000       6.19019000       0.00000000 </v>
     <v>       0.00000000       0.00000000       6.19019000 </v>
    </varray>
    <i name="volume">    237.19849985 </i>
    <varray name="rec_basis" >
     <v>       0.16154593      -0.00000000       0.00000000 </v>
     <v>       0.00000000       0.16154593       0.00000000 </v>
     <v>      -0.00000000      -0.00000000       0.16154593 </v>
    </varray>
   </crystal>
   <varray name="positions" >
    <v>       0.05189000       0.05189000       0.05189000 </v>
    <v>       0.94811000       0.94811000       0.94811000 </v>
    <v>       0.44811000       0.94811000       0.55189000 </v>
    <v>       0.55189000       0.05189000       0.44811000 </v>
    <v>       0.94811000       0.55189000       0.44811000 </v>
    <v>       0.05189000       0.44811000       0.55189000 </v>
    <v>       0.55189000       0.44811000       0.94811000 </v>
    <v>       0.44811000       0.55189000       0.05189000 </v>
   </varray>
  </structure>
  <varray name="primitive_index" >
   <v type="int" >        1 </v>
   <v type="int" >        2 </v>
   <v type="int" >        3 </v>
   <v type="int" >        4 </v>
   <v type="int" >        5 </v>
   <v type="int" >        6 </v>
   <v type="int" >        7 </v>
   <v type="int" >        8 </v>
  </varray>
 </primitive_cell>
 <kpoints>
  <generation param="Gamma">
   <v type="int" name="divisions">       8        8        8 </v>
   <v name="usershift">      0.00000000       0.00000000       0.00000000 </v>
   <v name="genvec1">      0.12500000       0.00000000       0.00000000 </v>
   <v name="genvec2">      0.00000000       0.12500000       0.00000000 </v>
   <v name="genvec3">     -0.00000000      -0.00000000       0.12500000 </v>
   <v name="shift">      0.00000000       0.00000000       0.00000000 </v>
  </generation>
  <varray name="kpointlist" >
   <v>       0.00000000       0.00000000       0.00000000 </v>
   <v>       0.12500000       0.00000000       0.00000000 </v>
   <v>       0.25000000       0.00000000       0.00000000 </v>
   <v>       0.37500000       0.00000000       0.00000000 </v>
   <v>       0.50000000       0.00000000       0.00000000 </v>
   <v>       0.12500000       0.12500000       0.00000000 </v>
   <v>       0.25000000       0.12500000       0.00000000 </v>
   <v>      -0.12500000       0.25000000       0.00000000 </v>
   <v>       0.37500000       0.12500000       0.00000000 </v>
   <v>      -0.12500000       0.37500000       0.00000000 </v>
   <v>       0.50000000       0.12500000       0.00000000 </v>
   <v>      -0.12500000       0.50000000       0.00000000 </v>
   <v>       0.25000000       0.25000000       0.00000000 </v>
   <v>       0.37500000       0.25000000       0.00000000 </v>
   <v>      -0.25000000       0.37500000       0.00000000 </v>
   <v>       0.50000000       0.25000000       0.00000000 </v>
   <v>      -0.25000000       0.50000000       0.00000000 </v>
   <v>       0.37500000       0.37500000       0.00000000 </v>
   <v>       0.50000000       0.37500000       0.00000000 </v>
   <v>      -0.37500000       0.50000000       0.00000000 </v>
   <v>       0.50000000       0.50000000       0.00000000 </v>
   <v>       0.12500000       0.12500000       0.12500000 </v>
   <v>       0.25000000       0.12500000       0.12500000 </v>
   <v>       0.37500000       0.12500000       0.12500000 </v>
   <v>       0.50000000       0.12500000       0.12500000 </v>
   <v>       0.25000000       0.25000000       0.12500000 </v>
   <v>       0.37500000       0.25000000       0.12500000 </v>
   <v>      -0.25000000       0.37500000       0.12500000 </v>
   <v>       0.50000000       0.25000000       0.12500000 </v>
   <v>      -0.25000000       0.50000000       0.12500000 </v>
   <v>       0.37500000       0.37500000       0.12500000 </v>
   <v>       0.50000000       0.37500000       0.12500000 </v>
   <v>      -0.37500000       0.50000000       0.12500000 </v>
   <v>       0.50000000       0.50000000       0.12500000 </v>
   <v>       0.25000000       0.25000000       0.25000000 </v>
   <v>       0.37500000       0.25000000       0.25000000 </v>
   <v>       0.50000000       0.25000000       0.25000000 </v>
   <v>       0.37500000       0.37500000       0.25000000 </v>
   <v>       0.50000000       0.37500000       0.25000000 </v>
   <v>      -0.37500000       0.50000000       0.25000000 </v>
   <v>       0.50000000       0.50000000       0.25000000 </v>
   <v>       0.37500000       0.37500000       0.37500000 </v>
   <v>       0.50000000       0.37500000       0.37500000 </v>
   <v>       0.50000000       0.50000000       0.37500000 </v>
   <v>       0.50000000       0.50000000       0.50000000 </v>
  </varray>
  <varray name="weights" >
   <v>       0.00195312 </v>
   <v>       0.01171875 </v>
   <v>       0.01171875 </v>
   <v>       0.01171875 </v>
   <v>       0.00585938 </v>
   <v>       0.02343750 </v>
   <v>       0.02343750 </v>
   <v>       0.02343750 </v>
   <v>       0.02343750 </v>
   <v>       0.02343750 </v>
   <v>       0.01171875 </v>
   <v>       0.01171875 </v>
   <v>       0.02343750 </v>
   <v>       0.02343750 </v>
   <v>       0.02343750 </v>
   <v>       0.01171875 </v>
   <v>       0.01171875 </v>
   <v>       0.02343750 </v>
   <v>       0.01171875 </v>
   <v>       0.01171875 </v>
   <v>       0.00585938 </v>
   <v>       0.01562500 </v>
   <v>       0.04687500 </v>
   <v>       0.04687500 </v>
   <v>       0.02343750 </v>
   <v>       0.04687500 </v>
   <v>       0.04687500 </v>
   <v>       0.04687500 </v>
   <v>       0.02343750 </v>
   <v>       0.02343750 </v>
   <v>       0.04687500 </v>
   <v>       0.02343750 </v>
   <v>       0.02343750 </v>
   <v>       0.01171875 </v>
   <v>       0.01562500 </v>
   <v>       0.04687500 </v>
   <v>       0.02343750 </v>
   <v>       0.04687500 </v>
   <v>       0.02343750 </v>
   <v>       0.02343750 </v>
   <v>       0.01171875 </v>
   <v>       0.01562500 </v>
   <v>       0.02343750 </v>
   <v>       0.01171875 </v>
   <v>       0.00195312 </v>
  </varray>
 </kpoints>
 <parameters>
  <separator name="general" >
   <i type="string" name="SYSTEM">N</i>
   <i type="logical" name="LCOMPAT"> F  </i>
  </separator>
  <separator name="electronic" >
   <i type="string" name="PREC">normal</i>
   <i name="ENMAX">    520.00000000</i>
   <i name="ENAUG">    627.11200000</i>
   <i name="EDIFF">      0.00010000</i>
   <i type="int" name="IALGO">    38</i>
   <i type="int" name="IWAVPR">    10</i>
   <i type="int" name="NBANDS">    48</i>
   <i type="int" name="NBANDSLOW">    -1</i>
   <i type="int" name="NBANDSHIGH">    -1</i>
   <i name="NELECT">     40.00000000</i>
   <i type="int" name="TURBO">     0</i>
   <i type="int" name="IRESTART">     0</i>
   <i type="int" name="NREBOOT">     0</i>
   <i type="int" name="NMIN">     0</i>
   <i name="EREF">      0.00000000</i>
   <separator name="electronic smearing" >
    <i type="int" name="ISMEAR">     0</i>
    <i name="SIGMA">      0.05000000</i>
    <i name="KSPACING">      0.50000000</i>
    <i type="logical" name="KGAMMA"> T  </i>
    <i type="logical" name="KBLOWUP"> T  </i>
   </separator>
   <separator name="electronic projectors" >
    <i type="logical" name="LREAL"> F  </i>
    <v name="ROPT">      0.00000000</v>
    <i type="int" name="LMAXPAW">  -100</i>
    <i type="int" name="LMAXMIX">     2</i>
    <i type="logical" name="NLSPLINE"> F  </i>
   </separator>
   <separator name="electronic startup" >
    <i type="int" name="ISTART">     1</i>
    <i type="int" name="ICHARG">     0</i>
    <i type="int" name="INIWAV">     1</i>
   </separator>
   <separator name="electronic spin" >
    <i type="int" name="ISPIN">     1</i>
    <i type="logical" name="LNONCOLLINEAR"> F  </i>
    <v name="MAGMOM">      1.00000000      1.00000000      1.00000000      1.00000000      1.00000000      1.00000000      1.00000000      1.00000000</v>
    <i name="NUPDOWN">     -1.00000000</i>
    <i type="logical" name="LSORBIT"> F  </i>
    <v name="SAXIS">      0.00000000      0.00000000      1.00000000</v>
    <i type="logical" name="LSPIRAL"> F  </i>
    <v name="QSPIRAL">      0.00000000      0.00000000      0.00000000</v>
    <i type="logical" name="LZEROZ"> F  </i>
   </separator>
   <separator name="electronic exchange-correlation" >
    <i type="logical" name="LASPH"> F  </i>
   </separator>
   <separator name="electronic convergence" >
    <i type="int" name="NELM">    60</i>
    <i type="int" name="NELMDL">     0</i>
    <i type="int" name="NELMIN">     2</i>
    <i name="ENINI">    520.00000000</i>
    <separator name="electronic convergence detail" >
     <i type="logical" name="LDIAG"> T  </i>
     <i type="logical" name="LSUBROT"> F  </i>
     <i name="WEIMIN">      0.00000000</i>
     <i name="EBREAK">      0.00000052</i>
     <i name="DEPER">      0.30000000</i>
     <i type="int" name="NRMM">     4</i>
     <i name="TIME">      0.40000000</i>
    </separator>
   </separator>
   <separator name="electronic mixer" >
    <i name="AMIX">      0.40000000</i>
    <i name="BMIX">      1.00000000</i>
    <i name="AMIN">      0.10000000</i>
    <i name="AMIX_MAG">      1.60000000</i>
    <i name="BMIX_MAG">      1.00000000</i>
    <separator name="electronic mixer details" >
     <i type="int" name="IMIX">     4</i>
     <i type="logical" name="MIXFIRST"> F  </i>
     <i type="int" name="MAXMIX">   -45</i>
     <i name="WC">    100.00000000</i>
     <i type="int" name="INIMIX">     1</i>
     <i type="int" name="MIXPRE">     1</i>
     <i type="int" name="MREMOVE">     5</i>
    </separator>
   </separator>
   <separator name="electronic dipolcorrection" >
    <i type="logical" name="LDIPOL"> F  </i>
    <i type="logical" name="LMONO"> F  </i>
    <i type="int" name="IDIPOL">     0</i>
    <i name="EPSILON">      1.00000000</i>
    <v name="DIPOL">   -100.00000000   -100.00000000   -100.00000000</v>
    <i name="EFIELD">      0.00000000</i>
    <i type="logical" name="LVACPOTAV"> F  </i>
   </separator>
  </separator>
  <separator name="grids" >
   <i type="int" name="NGX">    36</i>
   <i type="int" name="NGY">    36</i>
   <i type="int" name="NGZ">    36</i>
   <i type="int" name="NGXF">    72</i>
   <i type="int" name="NGYF">    72</i>
   <i type="int" name="NGZF">    72</i>
   <i type="logical" name="ADDGRID"> F  </i>
  </separator>
  <separator name="ionic" >
   <i type="int" name="NSW">     0</i>
   <i type="int" name="IBRION">    -1</i>
   <i type="int" name="MDALGO">     0</i>
   <i type="int" name="ISIF">     2</i>
   <i name="PSTRESS">      0.00000000</i>
   <i name="EDIFFG">      0.00100000</i>
   <i type="int" name="NFREE">     0</i>
   <i name="POTIM">      0.50000000</i>
   <i name="SMASS">     -3.00000000</i>
   <i name="SCALEE">      1.00000000</i>
  </separator>
  <separator name="ionic md" >
   <i name="TEBEG">      0.00010000</i>
   <i name="TEEND">      0.00010000</i>
   <i type="int" name="NBLOCK">     1</i>
   <i type="int" name="KBLOCK">     1</i>
   <i type="int" name="NPACO">   256</i>
   <i name="APACO">     10.00000000</i>
  </separator>
  <separator name="symmetry" >
   <i type="int" name="ISYM">     2</i>
   <i name="SYMPREC">      0.00001000</i>
  </separator>
  <separator name="dos" >
   <i type="int" name="LORBIT">     0</i>
   <v name="RWIGS">     -1.00000000</v>
   <i type="int" name="NEDOS">   301</i>
   <i name="EMIN">     10.00000000</i>
   <i name="EMAX">    -10.00000000</i>
   <i name="EFERMI">      0.00000000</i>
  </separator>
  <separator name="writing" >
   <i type="int" name="NWRITE">     2</i>
   <i type="logical" name="LWAVE"> T  </i>
   <i type="logical" name="LDOWNSAMPLE"> F  </i>
   <i type="logical" name="LCHARG"> T  </i>
   <i type="logical" name="LPARD"> F  </i>
   <i type="logical" name="LVTOT"> F  </i>
   <i type="logical" name="LVHAR"> F  </i>
   <i type="logical" name="LELF"> F  </i>
   <i type="logical" name="LOPTICS"> F  </i>
   <v name="STM">      0.00000000      0.00000000      0.00000000      0.00000000      0.00000000      0.00000000      0.00000000</v>
  </separator>
  <separator name="performance" >
   <i type="int" name="NPAR">    48</i>
   <i type="int" name="NSIM">     4</i>
   <i type="int" name="NBLK">    -1</i>
   <i type="logical" name="LPLANE"> T  </i>
   <i type="logical" name="LSCALAPACK"> T  </i>
   <i type="logical" name="LSCAAWARE"> F  </i>
   <i type="logical" name="LSCALU"> F  </i>
   <i type="logical" name="LASYNC"> F  </i>
   <i type="logical" name="LORBITALREAL"> F  </i>
  </separator>
  <separator name="miscellaneous" >
   <i type="int" name="IDIOT">     3</i>
   <i type="int" name="PHON_NSTRUCT">    -1</i>
   <i type="logical" name="LMUSIC"> F  </i>
   <v name="POMASS">     14.00100000</v>
   <v name="DARWINR">      0.00000000</v>
   <v name="DARWINV">      1.00000000</v>
   <i type="logical" name="LCORR"> T  </i>
  </separator>
  <i type="logical" name="GGA_COMPAT"> T  </i>
  <i type="logical" name="LBERRY"> F  </i>
  <i type="int" name="ICORELEVEL">     0</i>
  <i type="logical" name="LDAU"> F  </i>
  <i type="int" name="I_CONSTRAINED_M">     0</i>
  <separator name="electronic exchange-correlation" >
   <i type="string" name="GGA    ">PE</i>
   <i type="string" name="XC_C">1</i>
   <i type="int" name="VOSKOWN">     0</i>
   <i type="logical" name="LHFCALC"> F  </i>
   <i type="string" name="PRECFOCK"></i>
   <i type="logical" name="LSYMGRAD"> F  </i>
   <i type="logical" name="LHFONE"> F  </i>
   <i type="logical" name="LRHFCALC"> F  </i>
   <i type="logical" name="LTHOMAS"> F  </i>
   <i type="logical" name="LMODELHF"> F  </i>
   <i type="logical" name="LFOCKACE"> F  </i>
   <i name="ENCUT4O">     -1.00000000</i>
   <i type="int" name="EXXOEP">     0</i>
   <i type="int" name="FOURORBIT">     0</i>
   <i name="AEXX">      0.00000000</i>
   <i name="HFALPHA">      0.00000000</i>
   <i name="MCALPHA">      0.00000000</i>
   <i name="ALDAX">      1.00000000</i>
   <i name="AGGAX">      1.00000000</i>
   <i name="AMGGAX">      1.00000000</i>
   <i name="ALDAC">      1.00000000</i>
   <i name="AGGAC">      1.00000000</i>
   <i name="AMGGAC">      1.00000000</i>
   <i type="int" name="NKREDX">     1</i>
   <i type="int" name="NKREDY">     1</i>
   <i type="int" name="NKREDZ">     1</i>
   <i type="logical" name="SHIFTRED"> F  </i>
   <i type="logical" name="ODDONLY"> F  </i>
   <i type="logical" name="EVENONLY"> F  </i>
   <i type="int" name="LMAXFOCK">     0</i>
   <i type="int" name="NMAXFOCKAE">     0</i>
   <i type="logical" name="LFOCKAEDFT"> F  </i>
   <i name="HFSCREEN">      0.00000000</i>
   <i name="HFSCREENC">      0.00000000</i>
   <i type="int" name="NBANDSGWLOW">     0</i>
  </separator>
  <separator name="vdW DFT" >
   <i type="logical" name="LUSE_VDW"> F  </i>
   <i type="int" name="IVDW_NL">    -1</i>
   <i type="logical" name="LSPIN_VDW"> F  </i>
   <i name="ZAB_VDW">     -0.84910000</i>
   <i name="GAMMA_VDW">      1.39626340</i>
   <i name="ALPHA_VDW">      0.00000000</i>
   <i name="PARAM1">      0.12340000</i>
   <i name="PARAM2">      1.00000000</i>
   <i name="BPARAM">      6.30000000</i>
   <i name="CPARAM">      0.00930000</i>
  </separator>
  <separator name="model GW" >
   <i type="int" name="MODEL_GW">     0</i>
   <i name="MODEL_EPS0">     17.78988749</i>
   <i name="MODEL_ALPHA">      1.00000000</i>
  </separator>
  <separator name="linear response parameters" >
   <i type="logical" name="LEPSILON"> F  </i>
   <i type="logical" name="LRPA"> F  </i>
   <i type="logical" name="LNABLA"> F  </i>
   <i type="logical" name="LVEL"> F  </i>
   <i name="CSHIFT">      0.10000000</i>
   <i name="OMEGAMAX">     -1.00000000</i>
   <i name="DEG_THRESHOLD">      0.00200000</i>
   <i name="RTIME">     -0.10000000</i>
   <i name="WPLASMAI">      0.00000000</i>
   <v name="DFIELD">      0.00000000      0.00000000      0.00000000</v>
   <v name="WPLASMA">      0.00000000      0.00000000      0.00000000      0.00000000      0.00000000      0.00000000      0.00000000      0.00000000      0.00000000</v>
  </separator>
  <separator name="orbital magnetization" >
   <i type="logical" name="NUCIND"> F  </i>
   <v name="MAGPOS">      0.00000000      0.00000000      0.00000000</v>
   <i type="logical" name="LNICSALL"> T  </i>
   <i type="logical" name="ORBITALMAG"> F  </i>
   <i type="logical" name="LMAGBLOCH"> F  </i>
   <i type="logical" name="LCHIMAG"> F  </i>
   <i type="logical" name="LGAUGE"> T  </i>
   <i type="int" name="MAGATOM">     0</i>
   <v name="MAGDIPOL">      0.00000000      0.00000000      0.00000000</v>
   <v name="AVECCONST">      0.00000000      0.00000000      0.00000000</v>
  </separator>
  <separator name="response functions" >
   <i type="logical" name="LALL_IN_ONE"> F  </i>
   <i type="int" name="IALL_IN_ONE">    -1</i>
   <i type="int" name="NBANDS_WAVE">    -1</i>
   <i type="logical" name="LFINITE_TEMPERATURE"> F  </i>
   <i type="logical" name="LADDER"> F  </i>
   <i type="logical" name="LRPAFORCE"> F  </i>
   <i type="logical" name="LFXC"> F  </i>
   <i type="logical" name="LHARTREE"> T  </i>
   <i type="int" name="IBSE">     0</i>
   <v type="int" name="KPOINT">    -1     0     0     0</v>
   <i type="logical" name="LTCTC"> F  </i>
   <i type="logical" name="LTCTE"> F  </i>
   <i type="logical" name="LTETE"> F  </i>
   <i type="logical" name="LTRIPLET"> F  </i>
   <i type="logical" name="LFXCEPS"> F  </i>
   <i type="logical" name="LFXHEG"> F  </i>
   <i type="int" name="NATURALO">     2</i>
   <i type="logical" name="LHOLEGF"> F  </i>
   <i type="logical" name="L2ORDER"> F  </i>
   <i type="logical" name="LDMP1"> F  </i>
   <i type="logical" name="LMP2LT"> F  </i>
   <i type="logical" name="LSMP2LT"> F  </i>
   <i type="logical" name="LGWLF"> F  </i>
   <i name="ENCUTGW">     -1.60000002</i>
   <i name="ENCUTGWSOFT">     -1.60000002</i>
   <i name="ENCUTLF">     -1.00000000</i>
   <i type="logical" name="ESF_SPLINES"> F  </i>
   <i name="ESF_CONV">      0.01000000</i>
   <i type="int" name="ESF_NINTER">    15</i>
   <i type="int" name="LMAXMP2">    -1</i>
   <i name="SCISSOR">      0.00000000</i>
   <i type="int" name="NOMEGA">     0</i>
   <i type="int" name="NOMEGAR">     0</i>
   <i type="int" name="NBANDSGW">    -1</i>
   <i type="int" name="NBANDSO">    -1</i>
   <i type="int" name="NBANDSV">    -1</i>
   <i type="int" name="NELMGW">     1</i>
   <i type="int" name="NELMHF">     1</i>
   <i type="int" name="DIM">     3</i>
   <i type="int" name="IESPILON">     4</i>
   <i type="int" name="ANTIRES">     0</i>
   <i name="OMEGAMAX">    -30.00000000</i>
   <i name="OMEGAMIN">    -30.00000000</i>
   <i name="OMEGATL">   -200.00000000</i>
   <i type="int" name="OMEGAGRID">     0</i>
   <i name="CSHIFT">     -0.10000000</i>
   <i type="logical" name="LSELFENERGY"> F  </i>
   <i type="logical" name="LSPECTRAL"> F  </i>
   <i type="logical" name="LSPECTRALGW"> F  </i>
   <i type="logical" name="LSINGLES"> F  </i>
   <i type="logical" name="LFERMIGW"> F  </i>
   <i type="logical" name="ODDONLYGW"> F  </i>
   <i type="logical" name="EVENONLYGW"> F  </i>
   <i type="int" name="NKREDLFX">     1</i>
   <i type="int" name="NKREDLFY">     1</i>
   <i type="int" name="NKREDLFZ">     1</i>
   <i type="int" name="MAXMEM">  2800</i>
   <i type="int" name="TELESCOPE">     0</i>
   <i type="int" name="NTAUPAR">    -1</i>
   <i type="int" name="NOMEGAPAR">    -1</i>
   <i name="DAMP_NEWTON">      0.80000001</i>
   <i name="LAMBDA">      1.00000000</i>
  </separator>
  <separator name="External order field" >
   <i name="OFIELD_KAPPA">      0.00000000</i>
   <v name="OFIELD_K">      0.00000000      0.00000000      0.00000000</v>
   <i name="OFIELD_Q6_NEAR">      0.00000000</i>
   <i name="OFIELD_Q6_FAR">      0.00000000</i>
   <i name="OFIELD_A">      0.00000000</i>
  </separator>
  <separator name="optional k-points parameters" >
   <i type="int" name="KPOINTS_OPT_MODE">     1</i>
   <i type="logical" name="LKPOINTS_OPT"> T  </i>
  </separator>
 </parameters>
 <atominfo>
  <atoms>       8 </atoms>
  <types>       1 </types>
  <array name="atoms" >
   <dimension dim="1">ion</dimension>
   <field type="string">element</field>
   <field type="int">atomtype</field>
   <set>
    <rc><c>N </c><c>   1</c></rc>
    <rc><c>N </c><c>   1</c></rc>
    <rc><c>N </c><c>   1</c></rc>
    <rc><c>N </c><c>   1</c></rc>
    <rc><c>N </c><c>   1</c></rc>
    <rc><c>N </c><c>   1</c></rc>
    <rc><c>N </c><c>   1</c></rc>
    <rc><c>N </c><c>   1</c></rc>
   </set>
  </array>
  <array name="atomtypes" >
   <dimension dim="1">type</dimension>
   <field type="int">atomspertype</field>
   <field type="string">element</field>
   <field>mass</field>
   <field>valence</field>
   <field type="string">pseudopotential</field>
   <set>
    <rc><c>   8</c><c>N </c><c>     14.00100000</c><c>      5.00000000</c><c>PAW_PBE N 08Apr2002                     </c></rc>
   </set>
  </array>
 </atominfo>
 <structure name="initialpos" >
  <crystal>
   <varray name="basis" >
    <v>       6.19019000       0.00000000       0.00000000 </v>
    <v>       0.00000000       6.19019000       0.00000000 </v>
    <v>       0.00000000       0.00000000       6.19019000 </v>
   </varray>
   <i name="volume">    237.19849985 </i>
   <varray name="rec_basis" >
    <v>       0.16154593      -0.00000000       0.00000000 </v>
    <v>       0.00000000       0.16154593       0.00000000 </v>
    <v>      -0.00000000      -0.00000000       0.16154593 </v>
   </varray>
  </crystal>
  <varray name="positions" >
   <v>       0.05189000       0.05189000       0.05189000 </v>
   <v>       0.94811000       0.94811000       0.94811000 </v>
   <v>       0.44811000       0.94811000       0.55189000 </v>
   <v>       0.55189000       0.05189000       0.44811000 </v>
   <v>       0.94811000       0.55189000       0.44811000 </v>
   <v>       0.05189000       0.44811000       0.55189000 </v>
   <v>       0.55189000       0.44811000       0.94811000 </v>
   <v>       0.44811000       0.55189000       0.05189000 </v>
  </varray>
 </structure>
 <calculation>
  <scstep>
   <time name="dav">    1.90    1.90</time>
   <time name="total">    1.94    1.94</time>
   <energy>
    <i name="alphaZ">     29.07161185 </i>
    <i name="ewald">   -779.22376196 </i>
    <i name="hartreedc">  -1084.53007512 </i>
    <i name="XCdc">    156.88799933 </i>
    <i name="pawpsdc">   3939.77727110 </i>
    <i name="pawaedc">  -3950.31839765 </i>
    <i name="eentropy">     -0.00000000 </i>
    <i name="bandstr">   -494.60071652 </i>
    <i name="atom">   2116.28856302 </i>
    <i name="e_fr_energy">    -66.64750596 </i>
    <i name="e_wo_entrp">    -66.64750596 </i>
    <i name="e_0_energy">    -66.64750596 </i>
   </energy>
  </scstep>
  <scstep>
   <time name="dav">    0.72    0.72</time>
   <time name="total">    0.73    0.73</time>
   <energy>
    <i name="alphaZ">     29.07161185 </i>
    <i name="ewald">   -779.22376196 </i>
    <i name="hartreedc">  -1084.50493454 </i>
    <i name="XCdc">    156.88628349 </i>
    <i name="pawpsdc">   3939.75107557 </i>
    <i name="pawaedc">  -3950.29201751 </i>
    <i name="eentropy">     -0.00000000 </i>
    <i name="bandstr">   -494.62432511 </i>
    <i name="atom">   2116.28856302 </i>
    <i name="e_fr_energy">    -66.64750520 </i>
    <i name="e_wo_entrp">    -66.64750520 </i>
    <i name="e_0_energy">    -66.64750520 </i>
   </energy>
  </scstep>
  <structure>
   <crystal>
    <varray name="basis" >
     <v>       6.19019000       0.00000000       0.00000000 </v>
     <v>       0.00000000       6.19019000       0.00000000 </v>
     <v>       0.00000000       0.00000000       6.19019000 </v>
    </varray>
    <i name="volume">    237.19849985 </i>
    <varray name="rec_basis" >
     <v>       0.16154593      -0.00000000       0.00000000 </v>
     <v>       0.00000000       0.16154593       0.00000000 </v>
     <v>      -0.00000000      -0.00000000       0.16154593 </v>
    </varray>
   </crystal>
   <varray name="positions" >
    <v>       0.05189000       0.05189000       0.05189000 </v>
    <v>       0.94811000       0.94811000       0.94811000 </v>
    <v>       0.44811000       0.94811000       0.55189000 </v>
    <v>       0.55189000       0.05189000       0.44811000 </v>
    <v>       0.94811000       0.55189000       0.44811000 </v>
    <v>       0.05189000       0.44811000       0.55189000 </v>
    <v>       0.55189000       0.44811000       0.94811000 </v>
    <v>       0.44811000       0.55189000       0.05189000 </v>
   </varray>
  </structure>
  <varray name="forces" >
   <v>       0.03823289       0.03823289       0.03823289 </v>
   <v>      -0.03823289      -0.03823289      -0.03823289 </v>
   <v>      -0.03823289      -0.03823289       0.03823289 </v>
   <v>       0.03823289       0.03823289      -0.03823289 </v>
   <v>      -0.03823289       0.03823289      -0.03823289 </v>
   <v>       0.03823289      -0.03823289       0.03823289 </v>
   <v>       0.03823289      -0.03823289      -0.03823289 </v>
   <v>      -0.03823289       0.03823289       0.03823289 </v>
  </varray>
  <varray name="stress" >
   <v>      -1.07338117      -0.00000000      -0.00000000 </v>
   <v>      -0.00000000      -1.07338117      -0.00000000 </v>
   <v>      -0.00000000      -0.00000000      -1.07338117 </v>
  </varray>
  <energy>
   <i name="e_fr_energy">    -66.64750520 </i>
   <i name="e_wo_entrp">    -66.64750520 </i>
   <i name="e_0_energy">    -66.64750520 </i>
  </energy>
  <dos comment="kpoints_opt">
   <i name="efermi">     -6.74786084 </i>
   <total>
    <array>
     <dimension dim="1">gridpoints</dimension>
     <dimension dim="2">spin</dimension>
     <field>energy</field>
     <field>total</field>
     <field>integrated</field>
     <set>
      <set comment="spin 1">
       <r>   -27.4323     0.0000     0.0000 </r>
       <r>   -27.2951     0.0000     0.0000 </r>
       <r>   -27.1580     0.0000     0.0000 </r>
       <r>   -27.0209     0.0000     0.0000 </r>
       <r>   -26.8837     0.0000     0.0000 </r>
       <r>   -26.7466     0.0000     0.0000 </r>
       <r>   -26.6094     0.0000     0.0000 </r>
       <r>   -26.4723     0.0000     0.0000 </r>
       <r>   -26.3352     0.0000     0.0000 </r>
       <r>   -26.1980     0.0000     0.0000 </r>
       <r>   -26.0609     0.0000     0.0000 </r>
       <r>   -25.9237     0.0000     0.0000 </r>
       <r>   -25.7866     0.0000     0.0000 </r>
       <r>   -25.6495     0.1363     0.0187 </r>
       <r>   -25.5123    48.9383     6.7301 </r>
       <r>   -25.3752     9.2597     8.0000 </r>
       <r>   -25.2380     0.0000     8.0000 </r>
       <r>   -25.1009     0.0000     8.0000 </r>
       <r>   -24.9638     0.0000     8.0000 </r>
       <r>   -24.8266     0.0000     8.0000 </r>
       <r>   -24.6895     0.0000     8.0000 </r>
       <r>   -24.5523     0.0000     8.0000 </r>
       <r>   -24.4152     0.0000     8.0000 </r>
       <r>   -24.2781     0.0000     8.0000 </r>
       <r>   -24.1409     0.0000     8.0000 </r>
       <r>   -24.0038     0.0000     8.0000 </r>
       <r>   -23.8666     0.0000     8.0000 </r>
       <r>   -23.7295     0.0000     8.0000 </r>
       <r>   -23.5924     0.0000     8.0000 </r>
       <r>   -23.4552     0.0000     8.0000 </r>
       <r>   -23.3181     0.0000     8.0000 </r>
       <r>   -23.1809     0.0000     8.0000 </r>
       <r>   -23.0438     0.0000     8.0000 </r>
       <r>   -22.9066     0.0000     8.0000 </r>
       <r>   -22.7695     0.0000     8.0000 </r>
       <r>   -22.6324     0.0000     8.0000 </r>
       <r>   -22.4952     0.0000     8.0000 </r>
       <r>   -22.3581     0.0000     8.0000 </r>
       <r>   -22.2209     0.0000     8.0000 </r>
       <r>   -22.0838     0.0000     8.0000 </r>
       <r>   -21.9467     0.0000     8.0000 </r>
       <r>   -21.8095     0.0000     8.0000 </r>
       <r>   -21.6724     0.0000     8.0000 </r>
       <r>   -21.5352     0.0000     8.0000 </r>
       <r>   -21.3981     0.0000     8.0000 </r>
       <r>   -21.2610     0.0000     8.0000 </r>
       <r>   -21.1238     0.0000     8.0000 </r>
       <r>   -20.9867     0.0000     8.0000 </r>
       <r>   -20.8495     0.0000     8.0000 </r>
       <r>   -20.7124     0.0000     8.0000 </r>
       <r>   -20.5753     0.0000     8.0000 </r>
       <r>   -20.4381     0.0000     8.0000 </r>
       <r>   -20.3010     0.0000     8.0000 </r>
       <r>   -20.1638     0.0000     8.0000 </r>
       <r>   -20.0267     0.0000     8.0000 </r>
       <r>   -19.8896     0.0000     8.0000 </r>
       <r>   -19.7524     0.0000     8.0000 </r>
       <r>   -19.6153     0.0000     8.0000 </r>
       <r>   -19.4781     0.0000     8.0000 </r>
       <r>   -19.3410     0.0000     8.0000 </r>
       <r>   -19.2039     0.0000     8.0000 </r>
       <r>   -19.0667     0.0000     8.0000 </r>
       <r>   -18.9296     0.0000     8.0000 </r>
       <r>   -18.7924     0.0000     8.0000 </r>
       <r>   -18.6553     0.0000     8.0000 </r>
       <r>   -18.5182     0.0000     8.0000 </r>
       <r>   -18.3810     0.0000     8.0000 </r>
       <r>   -18.2439     0.0000     8.0000 </r>
       <r>   -18.1067     0.0000     8.0000 </r>
       <r>   -17.9696     0.0000     8.0000 </r>
       <r>   -17.8324     0.0000     8.0000 </r>
       <r>   -17.6953     0.0000     8.0000 </r>
       <r>   -17.5582     0.0000     8.0000 </r>
       <r>   -17.4210     0.0000     8.0000 </r>
       <r>   -17.2839     0.0000     8.0000 </r>
       <r>   -17.1467     0.0000     8.0000 </r>
       <r>   -17.0096     0.0000     8.0000 </r>
       <r>   -16.8725     0.0000     8.0000 </r>
       <r>   -16.7353     0.0000     8.0000 </r>
       <r>   -16.5982     0.0000     8.0000 </r>
       <r>   -16.4610     0.0000     8.0000 </r>
       <r>   -16.3239     0.0000     8.0000 </r>
       <r>   -16.1868     0.0000     8.0000 </r>
       <r>   -16.0496     0.0000     8.0000 </r>
       <r>   -15.9125     0.0000     8.0000 </r>
       <r>   -15.7753     0.0000     8.0000 </r>
       <r>   -15.6382     0.0000     8.0000 </r>
       <r>   -15.5011     0.0000     8.0000 </r>
       <r>   -15.3639     0.0000     8.0000 </r>
       <r>   -15.2268     0.0000     8.0000 </r>
       <r>   -15.0896     0.0000     8.0000 </r>
       <r>   -14.9525     0.0000     8.0000 </r>
       <r>   -14.8154     0.0000     8.0000 </r>
       <r>   -14.6782     0.0000     8.0000 </r>
       <r>   -14.5411     0.0000     8.0000 </r>
       <r>   -14.4039     0.0000     8.0000 </r>
       <r>   -14.2668     0.0000     8.0000 </r>
       <r>   -14.1297     0.0000     8.0000 </r>
       <r>   -13.9925     0.0000     8.0000 </r>
       <r>   -13.8554     0.0000     8.0000 </r>
       <r>   -13.7182     0.0000     8.0000 </r>
       <r>   -13.5811     0.0000     8.0000 </r>
       <r>   -13.4440     0.0000     8.0000 </r>
       <r>   -13.3068     0.0000     8.0000 </r>
       <r>   -13.1697     0.0000     8.0000 </r>
       <r>   -13.0325     0.0000     8.0000 </r>
       <r>   -12.8954     0.0000     8.0000 </r>
       <r>   -12.7582     0.0000     8.0000 </r>
       <r>   -12.6211     0.0000     8.0000 </r>
       <r>   -12.4840     0.0000     8.0000 </r>
       <r>   -12.3468     0.0000     8.0000 </r>
       <r>   -12.2097     0.0000     8.0000 </r>
       <r>   -12.0725     0.0000     8.0000 </r>
       <r>   -11.9354     0.0000     8.0000 </r>
       <r>   -11.7983     0.0000     8.0000 </r>
       <r>   -11.6611     0.0000     8.0000 </r>
       <r>   -11.5240     0.0000     8.0000 </r>
       <r>   -11.3868     0.0000     8.0000 </r>
       <r>   -11.2497     0.0000     8.0000 </r>
       <r>   -11.1126     0.0000     8.0000 </r>
       <r>   -10.9754     5.1527     8.7066 </r>
       <r>   -10.8383    52.0430    15.8439 </r>
       <r>   -10.7011     1.1386    16.0000 </r>
       <r>   -10.5640     0.0000    16.0000 </r>
       <r>   -10.4269     0.0000    16.0000 </r>
       <r>   -10.2897     0.0000    16.0000 </r>
       <r>   -10.1526     0.0000    16.0000 </r>
       <r>   -10.0154     0.0000    16.0000 </r>
       <r>    -9.8783     0.0000    16.0000 </r>
       <r>    -9.7412     0.0000    16.0000 </r>
       <r>    -9.6040     0.0000    16.0000 </r>
       <r>    -9.4669     0.0000    16.0000 </r>
       <r>    -9.3297     0.0000    16.0000 </r>
       <r>    -9.1926     0.0000    16.0000 </r>
       <r>    -9.0555     0.9673    16.1327 </r>
       <r>    -8.9183    51.4551    23.1892 </r>
       <r>    -8.7812    60.4897    31.4848 </r>
       <r>    -8.6440     3.7565    32.0000 </r>
       <r>    -8.5069     0.0000    32.0000 </r>
       <r>    -8.3698     0.0000    32.0000 </r>
       <r>    -8.2326     0.0000    32.0000 </r>
       <r>    -8.0955     0.0000    32.0000 </r>
       <r>    -7.9583     0.3483    32.0478 </r>
       <r>    -7.8212     4.0278    32.6001 </r>
       <r>    -7.6840     3.4778    33.0771 </r>
       <r>    -7.5469    13.5860    34.9403 </r>
       <r>    -7.4098    32.7967    39.4380 </r>
       <r>    -7.2726     4.0976    40.0000 </r>
       <r>    -7.1355     0.0000    40.0000 </r>
       <r>    -6.9983     0.0000    40.0000 </r>
       <r>    -6.8612     0.0000    40.0000 </r>
       <r>    -6.7241     0.0000    40.0000 </r>
       <r>    -6.5869     0.0000    40.0000 </r>
       <r>    -6.4498     0.0000    40.0000 </r>
       <r>    -6.3126     0.0000    40.0000 </r>
       <r>    -6.1755     0.0000    40.0000 </r>
       <r>    -6.0384     0.0000    40.0000 </r>
       <r>    -5.9012     0.0000    40.0000 </r>
       <r>    -5.7641     0.0000    40.0000 </r>
       <r>    -5.6269     0.0000    40.0000 </r>
       <r>    -5.4898     0.0000    40.0000 </r>
       <r>    -5.3527     0.0000    40.0000 </r>
       <r>    -5.2155     0.0000    40.0000 </r>
       <r>    -5.0784     0.0000    40.0000 </r>
       <r>    -4.9412     0.0000    40.0000 </r>
       <r>    -4.8041     0.0000    40.0000 </r>
       <r>    -4.6670     0.0000    40.0000 </r>
       <r>    -4.5298     0.0000    40.0000 </r>
       <r>    -4.3927     0.0000    40.0000 </r>
       <r>    -4.2555     0.0000    40.0000 </r>
       <r>    -4.1184     0.0000    40.0000 </r>
       <r>    -3.9813     0.0000    40.0000 </r>
       <r>    -3.8441     0.0000    40.0000 </r>
       <r>    -3.7070     0.0000    40.0000 </r>
       <r>    -3.5698     0.0000    40.0000 </r>
       <r>    -3.4327     0.0000    40.0000 </r>
       <r>    -3.2956     0.0000    40.0000 </r>
       <r>    -3.1584     0.0000    40.0000 </r>
       <r>    -3.0213     0.0000    40.0000 </r>
       <r>    -2.8841     0.0000    40.0000 </r>
       <r>    -2.7470     0.0000    40.0000 </r>
       <r>    -2.6098     0.0000    40.0000 </r>
       <r>    -2.4727     0.0000    40.0000 </r>
       <r>    -2.3356     0.0000    40.0000 </r>
       <r>    -2.1984     0.0000    40.0000 </r>
       <r>    -2.0613     0.0000    40.0000 </r>
       <r>    -1.9241     0.0000    40.0000 </r>
       <r>    -1.7870     0.0000    40.0000 </r>
       <r>    -1.6499     0.0000    40.0000 </r>
       <r>    -1.5127     0.0000    40.0000 </r>
       <r>    -1.3756     0.0000    40.0000 </r>
       <r>    -1.2384     0.0000    40.0000 </r>
       <r>    -1.1013     0.0000    40.0000 </r>
       <r>    -0.9642     0.0000    40.0000 </r>
       <r>    -0.8270     0.0000    40.0000 </r>
       <r>    -0.6899     0.0000    40.0000 </r>
       <r>    -0.5527     0.0000    40.0000 </r>
       <r>    -0.4156     0.0000    40.0000 </r>
       <r>    -0.2785     0.0000    40.0000 </r>
       <r>    -0.1413     0.0000    40.0000 </r>
       <r>    -0.0042     0.0616    40.0084 </r>
       <r>     0.1330    10.1916    41.4061 </r>
       <r>     0.2701    14.6132    43.4102 </r>
       <r>     0.4072    10.2122    44.8107 </r>
       <r>     0.5444    28.0225    48.6537 </r>
       <r>     0.6815    38.4401    53.9254 </r>
       <r>     0.8187    14.4810    55.9113 </r>
       <r>     0.9558     0.6465    56.0000 </r>
       <r>     1.0929     0.0000    56.0000 </r>
       <r>     1.2301     0.0000    56.0000 </r>
       <r>     1.3672     0.0000    56.0000 </r>
       <r>     1.5044     0.0000    56.0000 </r>
       <r>     1.6415     0.0000    56.0000 </r>
       <r>     1.7786     0.0000    56.0000 </r>
       <r>     1.9158     0.0000    56.0000 </r>
       <r>     2.0529     0.0000    56.0000 </r>
       <r>     2.1901     0.0000    56.0000 </r>
       <r>     2.3272     0.0000    56.0000 </r>
       <r>     2.4644     0.0000    56.0000 </r>
       <r>     2.6015     0.0003    56.0000 </r>
       <r>     2.7386     1.3580    56.1863 </r>
       <r>     2.8758     2.9640    56.5928 </r>
       <r>     3.0129     1.4825    56.7961 </r>
       <r>     3.1501     1.1048    56.9476 </r>
       <r>     3.2872     0.9242    57.0743 </r>
       <r>     3.4243     3.5132    57.5561 </r>
       <r>     3.5615     3.7389    58.0689 </r>
       <r>     3.6986     2.3578    58.3922 </r>
       <r>     3.8358     1.9192    58.6554 </r>
       <r>     3.9729     2.6128    59.0137 </r>
       <r>     4.1100     3.6057    59.5082 </r>
       <r>     4.2472     2.4916    59.8499 </r>
       <r>     4.3843     2.1848    60.1495 </r>
       <r>     4.5215     2.0133    60.4256 </r>
       <r>     4.6586     1.9036    60.6867 </r>
       <r>     4.7957     1.8354    60.9384 </r>
       <r>     4.9329     1.8063    61.1861 </r>
       <r>     5.0700     1.8353    61.4378 </r>
       <r>     5.2072     2.1656    61.7348 </r>
       <r>     5.3443     7.7031    62.7912 </r>
       <r>     5.4814     4.3841    63.3925 </r>
       <r>     5.6186     3.6337    63.8908 </r>
       <r>     5.7557     2.1148    64.1808 </r>
       <r>     5.8929     3.2336    64.6243 </r>
       <r>     6.0300     5.9030    65.4338 </r>
       <r>     6.1671    12.7456    67.1817 </r>
       <r>     6.3043     7.3520    68.1900 </r>
       <r>     6.4414     6.2930    69.0530 </r>
       <r>     6.5786     8.5281    70.2226 </r>
       <r>     6.7157     6.7969    71.1547 </r>
       <r>     6.8528     9.2828    72.4278 </r>
       <r>     6.9900     5.0958    73.1266 </r>
       <r>     7.1271     3.4496    73.5997 </r>
       <r>     7.2643     5.5249    74.3574 </r>
       <r>     7.4014     4.7139    75.0038 </r>
       <r>     7.5386     7.2296    75.9953 </r>
       <r>     7.6757     2.6537    76.3592 </r>
       <r>     7.8128     2.0215    76.6365 </r>
       <r>     7.9500     1.9443    76.9031 </r>
       <r>     8.0871     1.8969    77.1633 </r>
       <r>     8.2243     1.8860    77.4219 </r>
       <r>     8.3614     2.2792    77.7345 </r>
       <r>     8.4985     6.4363    78.6171 </r>
       <r>     8.6357     7.0337    79.5818 </r>
       <r>     8.7728     8.4145    80.7357 </r>
       <r>     8.9100     4.7966    81.3935 </r>
       <r>     9.0471     4.4225    82.0000 </r>
       <r>     9.1842     9.2722    83.2716 </r>
       <r>     9.3214     4.5143    83.8907 </r>
       <r>     9.4585     6.9631    84.8456 </r>
       <r>     9.5957     5.3842    85.5840 </r>
       <r>     9.7328     6.5789    86.4863 </r>
       <r>     9.8699     8.2766    87.6213 </r>
       <r>    10.0071     7.2022    88.6090 </r>
       <r>    10.1442     9.0075    89.8443 </r>
       <r>    10.2814     7.2877    90.8438 </r>
       <r>    10.4185     3.7361    91.3562 </r>
       <r>    10.5556     3.6528    91.8571 </r>
       <r>    10.6928     3.2177    92.2984 </r>
       <r>    10.8299     3.3290    92.7549 </r>
       <r>    10.9671     3.9797    93.3007 </r>
       <r>    11.1042     3.4415    93.7727 </r>
       <r>    11.2413     2.4609    94.1101 </r>
       <r>    11.3785     2.0182    94.3869 </r>
       <r>    11.5156     2.1295    94.6790 </r>
       <r>    11.6528     2.8830    95.0743 </r>
       <r>    11.7899     5.8162    95.8720 </r>
       <r>    11.9270     0.5140    95.9425 </r>
       <r>    12.0642     0.3323    95.9880 </r>
       <r>    12.2013     0.0872    96.0000 </r>
       <r>    12.3385     0.0000    96.0000 </r>
       <r>    12.4756     0.0000    96.0000 </r>
       <r>    12.6128     0.0000    96.0000 </r>
       <r>    12.7499     0.0000    96.0000 </r>
       <r>    12.8870     0.0000    96.0000 </r>
       <r>    13.0242     0.0000    96.0000 </r>
       <r>    13.1613     0.0000    96.0000 </r>
       <r>    13.2985     0.0000    96.0000 </r>
       <r>    13.4356     0.0000    96.0000 </r>
       <r>    13.5727     0.0000    96.0000 </r>
       <r>    13.7099     0.0000    96.0000 </r>
      </set>
     </set>
    </array>
   </total>
  </dos>
  <eigenvalues_kpoints_opt comment="kpoints_opt">
   <kpoints>
    <varray name="kpointlist" >
     <v>       0.00000000       0.00000000       0.00000000 </v>
     <v>       0.00000000       0.01041667       0.00000000 </v>
     <v>       0.00000000       0.02083333       0.00000000 </v>
     <v>       0.00000000       0.03125000       0.00000000 </v>
     <v>       0.00000000       0.04166667       0.00000000 </v>
     <v>       0.00000000       0.05208333       0.00000000 </v>
     <v>       0.00000000       0.06250000       0.00000000 </v>
     <v>       0.00000000       0.07291667       0.00000000 </v>
     <v>       0.00000000       0.08333333       0.00000000 </v>
     <v>       0.00000000       0.09375000       0.00000000 </v>
     <v>       0.00000000       0.10416667       0.00000000 </v>
     <v>       0.00000000       0.11458333       0.00000000 </v>
     <v>       0.00000000       0.12500000       0.00000000 </v>
     <v>       0.00000000       0.13541667       0.00000000 </v>
     <v>       0.00000000       0.14583333       0.00000000 </v>
     <v>       0.00000000       0.15625000       0.00000000 </v>
     <v>       0.00000000       0.16666667       0.00000000 </v>
     <v>       0.00000000       0.17708333       0.00000000 </v>
     <v>       0.00000000       0.18750000       0.00000000 </v>
     <v>       0.00000000       0.19791667       0.00000000 </v>
     <v>       0.00000000       0.20833333       0.00000000 </v>
     <v>       0.00000000       0.21875000       0.00000000 </v>
     <v>       0.00000000       0.22916667       0.00000000 </v>
     <v>       0.00000000       0.23958333       0.00000000 </v>
     <v>       0.00000000       0.25000000       0.00000000 </v>
     <v>       0.00000000       0.26041667       0.00000000 </v>
     <v>       0.00000000       0.27083333       0.00000000 </v>
     <v>       0.00000000       0.28125000       0.00000000 </v>
     <v>       0.00000000       0.29166667       0.00000000 </v>
     <v>       0.00000000       0.30208333       0.00000000 </v>
     <v>       0.00000000       0.31250000       0.00000000 </v>
     <v>       0.00000000       0.32291667       0.00000000 </v>
     <v>       0.00000000       0.33333333       0.00000000 </v>
     <v>       0.00000000       0.34375000       0.00000000 </v>
     <v>       0.00000000       0.35416667       0.00000000 </v>
     <v>       0.00000000       0.36458333       0.00000000 </v>
     <v>       0.00000000       0.37500000       0.00000000 </v>
     <v>       0.00000000       0.38541667       0.00000000 </v>
     <v>       0.00000000       0.39583333       0.00000000 </v>
     <v>       0.00000000       0.40625000       0.00000000 </v>
     <v>       0.00000000       0.41666667       0.00000000 </v>
     <v>       0.00000000       0.42708333       0.00000000 </v>
     <v>       0.00000000       0.43750000       0.00000000 </v>
     <v>       0.00000000       0.44791667       0.00000000 </v>
     <v>       0.00000000       0.45833333       0.00000000 </v>
     <v>       0.00000000       0.46875000       0.00000000 </v>
     <v>       0.00000000       0.47916667       0.00000000 </v>
     <v>       0.00000000       0.48958333       0.00000000 </v>
     <v>       0.00000000       0.50000000       0.00000000 </v>
     <v>       0.00000000       0.50000000       0.00000000 </v>
     <v>       0.01041667       0.50000000       0.00000000 </v>
     <v>       0.02083333       0.50000000       0.00000000 </v>
     <v>       0.03125000       0.50000000       0.00000000 </v>
     <v>       0.04166667       0.50000000       0.00000000 </v>
     <v>       0.05208333       0.50000000       0.00000000 </v>
     <v>       0.06250000       0.50000000       0.00000000 </v>
     <v>       0.07291667       0.50000000       0.00000000 </v>
     <v>       0.08333333       0.50000000       0.00000000 </v>
     <v>       0.09375000       0.50000000       0.00000000 </v>
     <v>       0.10416667       0.50000000       0.00000000 </v>
     <v>       0.11458333       0.50000000       0.00000000 </v>
     <v>       0.12500000       0.50000000       0.00000000 </v>
     <v>       0.13541667       0.50000000       0.00000000 </v>
     <v>       0.14583333       0.50000000       0.00000000 </v>
     <v>       0.15625000       0.50000000       0.00000000 </v>
     <v>       0.16666667       0.50000000       0.00000000 </v>
     <v>       0.17708333       0.50000000       0.00000000 </v>
     <v>       0.18750000       0.50000000       0.00000000 </v>
     <v>       0.19791667       0.50000000       0.00000000 </v>
     <v>       0.20833333       0.50000000       0.00000000 </v>
     <v>       0.21875000       0.50000000       0.00000000 </v>
     <v>       0.22916667       0.50000000       0.00000000 </v>
     <v>       0.23958333       0.50000000       0.00000000 </v>
     <v>       0.25000000       0.50000000       0.00000000 </v>
     <v>       0.26041667       0.50000000       0.00000000 </v>
     <v>       0.27083333       0.50000000       0.00000000 </v>
     <v>       0.28125000       0.50000000       0.00000000 </v>
     <v>       0.29166667       0.50000000       0.00000000 </v>
     <v>       0.30208333       0.50000000       0.00000000 </v>
     <v>       0.31250000       0.50000000       0.00000000 </v>
     <v>       0.32291667       0.50000000       0.00000000 </v>
     <v>       0.33333333       0.50000000       0.00000000 </v>
     <v>       0.34375000       0.50000000       0.00000000 </v>
     <v>       0.35416667       0.50000000       0.00000000 </v>
     <v>       0.36458333       0.50000000       0.00000000 </v>
     <v>       0.37500000       0.50000000       0.00000000 </v>
     <v>       0.38541667       0.50000000       0.00000000 </v>
     <v>       0.39583333       0.50000000       0.00000000 </v>
     <v>       0.40625000       0.50000000       0.00000000 </v>
     <v>       0.41666667       0.50000000       0.00000000 </v>
     <v>       0.42708333       0.50000000       0.00000000 </v>
     <v>       0.43750000       0.50000000       0.00000000 </v>
     <v>       0.44791667       0.50000000       0.00000000 </v>
     <v>       0.45833333       0.50000000       0.00000000 </v>
     <v>       0.46875000       0.50000000       0.00000000 </v>
     <v>       0.47916667       0.50000000       0.00000000 </v>
     <v>       0.48958333       0.50000000       0.00000000 </v>
     <v>       0.50000000       0.50000000       0.00000000 </v>
     <v>       0.50000000       0.50000000       0.00000000 </v>
     <v>       0.48958333       0.48958333       0.00000000 </v>
     <v>       0.47916667       0.47916667       0.00000000 </v>
     <v>       0.46875000       0.46875000       0.00000000 </v>
     <v>       0.45833333       0.45833333       0.00000000 </v>
     <v>       0.44791667       0.44791667       0.00000000 </v>
     <v>       0.43750000       0.43750000       0.00000000 </v>
     <v>       0.42708333       0.42708333       0.00000000 </v>
     <v>       0.41666667       0.41666667       0.00000000 </v>
     <v>       0.40625000       0.40625000       0.00000000 </v>
     <v>       0.39583333       0.39583333       0.00000000 </v>
     <v>       0.38541667       0.38541667       0.00000000 </v>
     <v>       0.37500000       0.37500000       0.00000000 </v>
     <v>       0.36458333       0.36458333       0.00000000 </v>
     <v>       0.35416667       0.35416667       0.00000000 </v>
     <v>       0.34375000       0.34375000       0.00000000 </v>
     <v>       0.33333333       0.33333333       0.00000000 </v>
     <v>       0.32291667       0.32291667       0.00000000 </v>
     <v>       0.31250000       0.31250000       0.00000000 </v>
     <v>       0.30208333       0.30208333       0.00000000 </v>
     <v>       0.29166667       0.29166667       0.00000000 </v>
     <v>       0.28125000       0.28125000       0.00000000 </v>
     <v>       0.27083333       0.27083333       0.00000000 </v>
     <v>       0.26041667       0.26041667       0.00000000 </v>
     <v>       0.25000000       0.25000000       0.00000000 </v>
     <v>       0.23958333       0.23958333       0.00000000 </v>
     <v>       0.22916667       0.22916667       0.00000000 </v>
     <v>       0.21875000       0.21875000       0.00000000 </v>
     <v>       0.20833333       0.20833333       0.00000000 </v>
     <v>       0.19791667       0.19791667       0.00000000 </v>
     <v>       0.18750000       0.18750000       0.00000000 </v>
     <v>       0.17708333       0.17708333       0.00000000 </v>
     <v>       0.16666667       0.16666667       0.00000000 </v>
     <v>       0.15625000       0.15625000       0.00000000 </v>
     <v>       0.14583333       0.14583333       0.00000000 </v>
     <v>       0.13541667       0.13541667       0.00000000 </v>
     <v>       0.12500000       0.12500000       0.00000000 </v>
     <v>       0.11458333       0.11458333       0.00000000 </v>
     <v>       0.10416667       0.10416667       0.00000000 </v>
     <v>       0.09375000       0.09375000       0.00000000 </v>
     <v>       0.08333333       0.08333333       0.00000000 </v>
     <v>       0.07291667       0.07291667       0.00000000 </v>
     <v>       0.06250000       0.06250000       0.00000000 </v>
     <v>       0.05208333       0.05208333       0.00000000 </v>
     <v>       0.04166667       0.04166667       0.00000000 </v>
     <v>       0.03125000       0.03125000       0.00000000 </v>
     <v>       0.02083333       0.02083333       0.00000000 </v>
     <v>       0.01041667       0.01041667       0.00000000 </v>
     <v>       0.00000000       0.00000000       0.00000000 </v>
    </varray>
    <varray name="weights" >
     <v>       0.00680272 </v>
     <v>       0.00680272 </v>
     <v>       0.00680272 </v>
     <v>       0.00680272 </v>
     <v>       0.00680272 </v>
     <v>       0.00680272 </v>
     <v>       0.00680272 </v>
     <v>       0.00680272 </v>
     <v>       0.00680272 </v>
     <v>       0.00680272 </v>
     <v>       0.00680272 </v>
     <v>       0.00680272 </v>
     <v>       0.00680272 </v>
     <v>       0.00680272 </v>
     <v>       0.00680272 </v>
     <v>       0.00680272 </v>
     <v>       0.00680272 </v>
     <v>       0.00680272 </v>
     <v>       0.00680272 </v>
     <v>       0.00680272 </v>
     <v>       0.00680272 </v>
     <v>       0.00680272 </v>
     <v>       0.00680272 </v>
     <v>       0.00680272 </v>
     <v>       0.00680272 </v>
     <v>       0.00680272 </v>
     <v>       0.00680272 </v>
     <v>       0.00680272 </v>
     <v>       0.00680272 </v>
     <v>       0.00680272 </v>
     <v>       0.00680272 </v>
     <v>       0.00680272 </v>
     <v>       0.00680272 </v>
     <v>       0.00680272 </v>
     <v>       0.00680272 </v>
     <v>       0.00680272 </v>
     <v>       0.00680272 </v>
     <v>       0.00680272 </v>
     <v>       0.00680272 </v>
     <v>       0.00680272 </v>
     <v>       0.00680272 </v>
     <v>       0.00680272 </v>
     <v>       0.00680272 </v>
     <v>       0.00680272 </v>
     <v>       0.00680272 </v>
     <v>       0.00680272 </v>
     <v>       0.00680272 </v>
     <v>       0.00680272 </v>
     <v>       0.00680272 </v>
     <v>       0.00680272 </v>
     <v>       0.00680272 </v>
     <v>       0.00680272 </v>
     <v>       0.00680272 </v>
     <v>       0.00680272 </v>
     <v>       0.00680272 </v>
     <v>       0.00680272 </v>
     <v>       0.00680272 </v>
     <v>       0.00680272 </v>
     <v>       0.00680272 </v>
     <v>       0.00680272 </v>
     <v>       0.00680272 </v>
     <v>       0.00680272 </v>
     <v>       0.00680272 </v>
     <v>       0.00680272 </v>
     <v>       0.00680272 </v>
     <v>       0.00680272 </v>
     <v>       0.00680272 </v>
     <v>       0.00680272 </v>
     <v>       0.00680272 </v>
     <v>       0.00680272 </v>
     <v>       0.00680272 </v>
     <v>       0.00680272 </v>
     <v>       0.00680272 </v>
     <v>       0.00680272 </v>
     <v>       0.00680272 </v>
     <v>       0.00680272 </v>
     <v>       0.00680272 </v>
     <v>       0.00680272 </v>
     <v>       0.00680272 </v>
     <v>       0.00680272 </v>
     <v>       0.00680272 </v>
     <v>       0.00680272 </v>
     <v>       0.00680272 </v>
     <v>       0.00680272 </v>
     <v>       0.00680272 </v>
     <v>       0.00680272 </v>
     <v>       0.00680272 </v>
     <v>       0.00680272 </v>
     <v>       0.00680272 </v>
     <v>       0.00680272 </v>
     <v>       0.00680272 </v>
     <v>       0.00680272 </v>
     <v>       0.00680272 </v>
     <v>       0.00680272 </v>
     <v>       0.00680272 </v>
     <v>       0.00680272 </v>
     <v>       0.00680272 </v>
     <v>       0.00680272 </v>
     <v>       0.00680272 </v>
     <v>       0.00680272 </v>
     <v>       0.00680272 </v>
     <v>       0.00680272 </v>
     <v>       0.00680272 </v>
     <v>       0.00680272 </v>
     <v>       0.00680272 </v>
     <v>       0.00680272 </v>
     <v>       0.00680272 </v>
     <v>       0.00680272 </v>
     <v>       0.00680272 </v>
     <v>       0.00680272 </v>
     <v>       0.00680272 </v>
     <v>       0.00680272 </v>
     <v>       0.00680272 </v>
     <v>       0.00680272 </v>
     <v>       0.00680272 </v>
     <v>       0.00680272 </v>
     <v>       0.00680272 </v>
     <v>       0.00680272 </v>
     <v>       0.00680272 </v>
     <v>       0.00680272 </v>
     <v>       0.00680272 </v>
     <v>       0.00680272 </v>
     <v>       0.00680272 </v>
     <v>       0.00680272 </v>
     <v>       0.00680272 </v>
     <v>       0.00680272 </v>
     <v>       0.00680272 </v>
     <v>       0.00680272 </v>
     <v>       0.00680272 </v>
     <v>       0.00680272 </v>
     <v>       0.00680272 </v>
     <v>       0.00680272 </v>
     <v>       0.00680272 </v>
     <v>       0.00680272 </v>
     <v>       0.00680272 </v>
     <v>       0.00680272 </v>
     <v>       0.00680272 </v>
     <v>       0.00680272 </v>
     <v>       0.00680272 </v>
     <v>       0.00680272 </v>
     <v>       0.00680272 </v>
     <v>       0.00680272 </v>
     <v>       0.00680272 </v>
     <v>       0.00680272 </v>
     <v>       0.00680272 </v>
     <v>       0.00680272 </v>
     <v>       0.00680272 </v>
    </varray>
   </kpoints>
   <eigenvalues>
    <array>
     <dimension dim="1">band</dimension>
     <dimension dim="2">kpoint</dimension>
     <dimension dim="3">spin</dimension>
     <field>eigene</field>
     <set>
      <set comment="spin 1">
       <set comment="kpoint 1">
        <r>  -25.5626 </r>
        <r>  -25.5433 </r>
        <r>  -25.5433 </r>
        <r>  -25.5433 </r>
        <r>  -10.9384 </r>
        <r>  -10.9384 </r>
        <r>  -10.9384 </r>
        <r>  -10.8748 </r>
        <r>   -8.9920 </r>
        <r>   -8.9920 </r>
        <r>   -8.9920 </r>
        <r>   -8.8877 </r>
        <r>   -8.8877 </r>
        <r>   -8.8064 </r>
        <r>   -8.8064 </r>
        <r>   -8.8064 </r>
        <r>   -7.9295 </r>
        <r>   -7.4437 </r>
        <r>   -7.4437 </r>
        <r>   -7.4437 </r>
        <r>    0.0737 </r>
        <r>    0.0737 </r>
        <r>    0.0737 </r>
        <r>    0.6107 </r>
        <r>    0.6107 </r>
        <r>    0.6107 </r>
        <r>    0.7795 </r>
        <r>    0.7795 </r>
        <r>    2.7235 </r>
        <r>    5.2720 </r>
        <r>    5.2720 </r>
        <r>    5.2720 </r>
        <r>    6.1216 </r>
        <r>    6.1216 </r>
        <r>    6.1216 </r>
        <r>    6.8704 </r>
        <r>    6.8704 </r>
        <r>    6.8704 </r>
        <r>    8.6396 </r>
        <r>    8.6396 </r>
        <r>    9.0787 </r>
        <r>    9.0787 </r>
        <r>    9.0787 </r>
        <r>    9.6922 </r>
        <r>    9.6922 </r>
        <r>    9.6922 </r>
        <r>   10.0813 </r>
        <r>   10.1956 </r>
       </set>
       <set comment="kpoint 2">
        <r>  -25.5626 </r>
        <r>  -25.5433 </r>
        <r>  -25.5433 </r>
        <r>  -25.5433 </r>
        <r>  -10.9384 </r>
        <r>  -10.9384 </r>
        <r>  -10.9384 </r>
        <r>  -10.8748 </r>
        <r>   -8.9920 </r>
        <r>   -8.9919 </r>
        <r>   -8.9919 </r>
        <r>   -8.8877 </r>
        <r>   -8.8877 </r>
        <r>   -8.8065 </r>
        <r>   -8.8064 </r>
        <r>   -8.8064 </r>
        <r>   -7.9293 </r>
        <r>   -7.4438 </r>
        <r>   -7.4437 </r>
        <r>   -7.4437 </r>
        <r>    0.0738 </r>
        <r>    0.0738 </r>
        <r>    0.0739 </r>
        <r>    0.6106 </r>
        <r>    0.6106 </r>
        <r>    0.6107 </r>
        <r>    0.7793 </r>
        <r>    0.7794 </r>
        <r>    2.7237 </r>
        <r>    5.2679 </r>
        <r>    5.2720 </r>
        <r>    5.2723 </r>
        <r>    6.1214 </r>
        <r>    6.1217 </r>
        <r>    6.1260 </r>
        <r>    6.8689 </r>
        <r>    6.8695 </r>
        <r>    6.8706 </r>
        <r>    8.6391 </r>
        <r>    8.6409 </r>
        <r>    9.0763 </r>
        <r>    9.0788 </r>
        <r>    9.0799 </r>
        <r>    9.6849 </r>
        <r>    9.6924 </r>
        <r>    9.6944 </r>
        <r>   10.0826 </r>
        <r>   10.2039 </r>
       </set>
       <set comment="kpoint 3">
        <r>  -25.5626 </r>
        <r>  -25.5433 </r>
        <r>  -25.5433 </r>
        <r>  -25.5433 </r>
        <r>  -10.9384 </r>
        <r>  -10.9384 </r>
        <r>  -10.9384 </r>
        <r>  -10.8748 </r>
        <r>   -8.9920 </r>
        <r>   -8.9919 </r>
        <r>   -8.9919 </r>
        <r>   -8.8878 </r>
        <r>   -8.8876 </r>
        <r>   -8.8068 </r>
        <r>   -8.8065 </r>
        <r>   -8.8065 </r>
        <r>   -7.9287 </r>
        <r>   -7.4441 </r>
        <r>   -7.4437 </r>
        <r>   -7.4437 </r>
        <r>    0.0742 </r>
        <r>    0.0742 </r>
        <r>    0.0745 </r>
        <r>    0.6104 </r>
        <r>    0.6105 </r>
        <r>    0.6108 </r>
        <r>    0.7789 </r>
        <r>    0.7793 </r>
        <r>    2.7244 </r>
        <r>    5.2560 </r>
        <r>    5.2721 </r>
        <r>    5.2732 </r>
        <r>    6.1210 </r>
        <r>    6.1220 </r>
        <r>    6.1389 </r>
        <r>    6.8647 </r>
        <r>    6.8670 </r>
        <r>    6.8714 </r>
        <r>    8.6376 </r>
        <r>    8.6446 </r>
        <r>    9.0693 </r>
        <r>    9.0791 </r>
        <r>    9.0835 </r>
        <r>    9.6645 </r>
        <r>    9.6929 </r>
        <r>    9.7008 </r>
        <r>   10.0868 </r>
        <r>   10.2273 </r>
       </set>
       <set comment="kpoint 4">
        <r>  -25.5626 </r>
        <r>  -25.5433 </r>
        <r>  -25.5433 </r>
        <r>  -25.5433 </r>
        <r>  -10.9384 </r>
        <r>  -10.9384 </r>
        <r>  -10.9383 </r>
        <r>  -10.8749 </r>
        <r>   -8.9920 </r>
        <r>   -8.9918 </r>
        <r>   -8.9917 </r>
        <r>   -8.8880 </r>
        <r>   -8.8876 </r>
        <r>   -8.8072 </r>
        <r>   -8.8067 </r>
        <r>   -8.8066 </r>
        <r>   -7.9277 </r>
        <r>   -7.4446 </r>
        <r>   -7.4437 </r>
        <r>   -7.4437 </r>
        <r>    0.0748 </r>
        <r>    0.0749 </r>
        <r>    0.0756 </r>
        <r>    0.6101 </r>
        <r>    0.6102 </r>
        <r>    0.6111 </r>
        <r>    0.7783 </r>
        <r>    0.7791 </r>
        <r>    2.7255 </r>
        <r>    5.2368 </r>
        <r>    5.2722 </r>
        <r>    5.2747 </r>
        <r>    6.1203 </r>
        <r>    6.1225 </r>
        <r>    6.1597 </r>
        <r>    6.8578 </r>
        <r>    6.8628 </r>
        <r>    6.8727 </r>
        <r>    8.6351 </r>
        <r>    8.6507 </r>
        <r>    9.0579 </r>
        <r>    9.0795 </r>
        <r>    9.0895 </r>
        <r>    9.6338 </r>
        <r>    9.6939 </r>
        <r>    9.7111 </r>
        <r>   10.0936 </r>
        <r>   10.2629 </r>
       </set>
       <set comment="kpoint 5">
        <r>  -25.5625 </r>
        <r>  -25.5434 </r>
        <r>  -25.5433 </r>
        <r>  -25.5433 </r>
        <r>  -10.9384 </r>
        <r>  -10.9384 </r>
        <r>  -10.9382 </r>
        <r>  -10.8750 </r>
        <r>   -8.9920 </r>
        <r>   -8.9916 </r>
        <r>   -8.9915 </r>
        <r>   -8.8883 </r>
        <r>   -8.8874 </r>
        <r>   -8.8079 </r>
        <r>   -8.8070 </r>
        <r>   -8.8068 </r>
        <r>   -7.9264 </r>
        <r>   -7.4452 </r>
        <r>   -7.4436 </r>
        <r>   -7.4436 </r>
        <r>    0.0757 </r>
        <r>    0.0759 </r>
        <r>    0.0771 </r>
        <r>    0.6096 </r>
        <r>    0.6098 </r>
        <r>    0.6114 </r>
        <r>    0.7773 </r>
        <r>    0.7787 </r>
        <r>    2.7270 </r>
        <r>    5.2114 </r>
        <r>    5.2724 </r>
        <r>    5.2768 </r>
        <r>    6.1193 </r>
        <r>    6.1233 </r>
        <r>    6.1874 </r>
        <r>    6.8481 </r>
        <r>    6.8570 </r>
        <r>    6.8746 </r>
        <r>    8.6315 </r>
        <r>    8.6592 </r>
        <r>    9.0428 </r>
        <r>    9.0802 </r>
        <r>    9.0978 </r>
        <r>    9.5961 </r>
        <r>    9.6953 </r>
        <r>    9.7247 </r>
        <r>   10.1030 </r>
        <r>   10.3077 </r>
       </set>
       <set comment="kpoint 6">
        <r>  -25.5625 </r>
        <r>  -25.5434 </r>
        <r>  -25.5433 </r>
        <r>  -25.5433 </r>
        <r>  -10.9384 </r>
        <r>  -10.9384 </r>
        <r>  -10.9380 </r>
        <r>  -10.8752 </r>
        <r>   -8.9920 </r>
        <r>   -8.9915 </r>
        <r>   -8.9913 </r>
        <r>   -8.8886 </r>
        <r>   -8.8873 </r>
        <r>   -8.8087 </r>
        <r>   -8.8073 </r>
        <r>   -8.8070 </r>
        <r>   -7.9246 </r>
        <r>   -7.4460 </r>
        <r>   -7.4435 </r>
        <r>   -7.4435 </r>
        <r>    0.0768 </r>
        <r>    0.0771 </r>
        <r>    0.0790 </r>
        <r>    0.6090 </r>
        <r>    0.6093 </r>
        <r>    0.6117 </r>
        <r>    0.7761 </r>
        <r>    0.7783 </r>
        <r>    2.7290 </r>
        <r>    5.1807 </r>
        <r>    5.2727 </r>
        <r>    5.2795 </r>
        <r>    6.1181 </r>
        <r>    6.1242 </r>
        <r>    6.2210 </r>
        <r>    6.8360 </r>
        <r>    6.8497 </r>
        <r>    6.8769 </r>
        <r>    8.6269 </r>
        <r>    8.6699 </r>
        <r>    9.0243 </r>
        <r>    9.0810 </r>
        <r>    9.1082 </r>
        <r>    9.5540 </r>
        <r>    9.6971 </r>
        <r>    9.7412 </r>
        <r>   10.1150 </r>
        <r>   10.3590 </r>
       </set>
       <set comment="kpoint 7">
        <r>  -25.5624 </r>
        <r>  -25.5435 </r>
        <r>  -25.5433 </r>
        <r>  -25.5433 </r>
        <r>  -10.9384 </r>
        <r>  -10.9383 </r>
        <r>  -10.9378 </r>
        <r>  -10.8753 </r>
        <r>   -8.9920 </r>
        <r>   -8.9912 </r>
        <r>   -8.9910 </r>
        <r>   -8.8890 </r>
        <r>   -8.8871 </r>
        <r>   -8.8098 </r>
        <r>   -8.8078 </r>
        <r>   -8.8073 </r>
        <r>   -7.9225 </r>
        <r>   -7.4470 </r>
        <r>   -7.4434 </r>
        <r>   -7.4434 </r>
        <r>    0.0781 </r>
        <r>    0.0786 </r>
        <r>    0.0813 </r>
        <r>    0.6083 </r>
        <r>    0.6087 </r>
        <r>    0.6122 </r>
        <r>    0.7746 </r>
        <r>    0.7778 </r>
        <r>    2.7315 </r>
        <r>    5.1457 </r>
        <r>    5.2730 </r>
        <r>    5.2828 </r>
        <r>    6.1166 </r>
        <r>    6.1253 </r>
        <r>    6.2594 </r>
        <r>    6.8214 </r>
        <r>    6.8409 </r>
        <r>    6.8798 </r>
        <r>    8.6212 </r>
        <r>    8.6827 </r>
        <r>    9.0033 </r>
        <r>    9.0821 </r>
        <r>    9.1207 </r>
        <r>    9.5092 </r>
        <r>    9.6996 </r>
        <r>    9.7599 </r>
        <r>   10.1296 </r>
        <r>   10.4152 </r>
       </set>
       <set comment="kpoint 8">
        <r>  -25.5623 </r>
        <r>  -25.5436 </r>
        <r>  -25.5433 </r>
        <r>  -25.5433 </r>
        <r>  -10.9384 </r>
        <r>  -10.9383 </r>
        <r>  -10.9376 </r>
        <r>  -10.8756 </r>
        <r>   -8.9920 </r>
        <r>   -8.9910 </r>
        <r>   -8.9906 </r>
        <r>   -8.8894 </r>
        <r>   -8.8869 </r>
        <r>   -8.8109 </r>
        <r>   -8.8083 </r>
        <r>   -8.8076 </r>
        <r>   -7.9200 </r>
        <r>   -7.4482 </r>
        <r>   -7.4433 </r>
        <r>   -7.4433 </r>
        <r>    0.0797 </r>
        <r>    0.0803 </r>
        <r>    0.0840 </r>
        <r>    0.6074 </r>
        <r>    0.6080 </r>
        <r>    0.6128 </r>
        <r>    0.7728 </r>
        <r>    0.7772 </r>
        <r>    2.7344 </r>
        <r>    5.1074 </r>
        <r>    5.2734 </r>
        <r>    5.2867 </r>
        <r>    6.1148 </r>
        <r>    6.1266 </r>
        <r>    6.3018 </r>
        <r>    6.8045 </r>
        <r>    6.8307 </r>
        <r>    6.8833 </r>
        <r>    8.6145 </r>
        <r>    8.6975 </r>
        <r>    8.9800 </r>
        <r>    9.0832 </r>
        <r>    9.1351 </r>
        <r>    9.4629 </r>
        <r>    9.7029 </r>
        <r>    9.7802 </r>
        <r>   10.1469 </r>
        <r>   10.4749 </r>
       </set>
       <set comment="kpoint 9">
        <r>  -25.5623 </r>
        <r>  -25.5436 </r>
        <r>  -25.5434 </r>
        <r>  -25.5433 </r>
        <r>  -10.9383 </r>
        <r>  -10.9383 </r>
        <r>  -10.9374 </r>
        <r>  -10.8758 </r>
        <r>   -8.9920 </r>
        <r>   -8.9906 </r>
        <r>   -8.9902 </r>
        <r>   -8.8899 </r>
        <r>   -8.8866 </r>
        <r>   -8.8123 </r>
        <r>   -8.8088 </r>
        <r>   -8.8080 </r>
        <r>   -7.9171 </r>
        <r>   -7.4495 </r>
        <r>   -7.4432 </r>
        <r>   -7.4431 </r>
        <r>    0.0815 </r>
        <r>    0.0823 </r>
        <r>    0.0871 </r>
        <r>    0.6064 </r>
        <r>    0.6072 </r>
        <r>    0.6134 </r>
        <r>    0.7707 </r>
        <r>    0.7765 </r>
        <r>    2.7377 </r>
        <r>    5.0665 </r>
        <r>    5.2739 </r>
        <r>    5.2912 </r>
        <r>    6.1127 </r>
        <r>    6.1281 </r>
        <r>    6.3472 </r>
        <r>    6.7856 </r>
        <r>    6.8193 </r>
        <r>    6.8872 </r>
        <r>    8.6066 </r>
        <r>    8.7140 </r>
        <r>    8.9552 </r>
        <r>    9.0846 </r>
        <r>    9.1511 </r>
        <r>    9.4161 </r>
        <r>    9.7069 </r>
        <r>    9.8016 </r>
        <r>   10.1666 </r>
        <r>   10.5375 </r>
       </set>
       <set comment="kpoint 10">
        <r>  -25.5622 </r>
        <r>  -25.5437 </r>
        <r>  -25.5434 </r>
        <r>  -25.5433 </r>
        <r>  -10.9383 </r>
        <r>  -10.9383 </r>
        <r>  -10.9371 </r>
        <r>  -10.8761 </r>
        <r>   -8.9920 </r>
        <r>   -8.9903 </r>
        <r>   -8.9898 </r>
        <r>   -8.8905 </r>
        <r>   -8.8863 </r>
        <r>   -8.8138 </r>
        <r>   -8.8095 </r>
        <r>   -8.8085 </r>
        <r>   -7.9139 </r>
        <r>   -7.4511 </r>
        <r>   -7.4431 </r>
        <r>   -7.4430 </r>
        <r>    0.0836 </r>
        <r>    0.0846 </r>
        <r>    0.0907 </r>
        <r>    0.6053 </r>
        <r>    0.6063 </r>
        <r>    0.6141 </r>
        <r>    0.7683 </r>
        <r>    0.7757 </r>
        <r>    2.7416 </r>
        <r>    5.0235 </r>
        <r>    5.2744 </r>
        <r>    5.2962 </r>
        <r>    6.1104 </r>
        <r>    6.1296 </r>
        <r>    6.3951 </r>
        <r>    6.7647 </r>
        <r>    6.8069 </r>
        <r>    6.8917 </r>
        <r>    8.5975 </r>
        <r>    8.7321 </r>
        <r>    8.9291 </r>
        <r>    9.0861 </r>
        <r>    9.1686 </r>
        <r>    9.3693 </r>
        <r>    9.7121 </r>
        <r>    9.8238 </r>
        <r>   10.1889 </r>
        <r>   10.6024 </r>
       </set>
       <set comment="kpoint 11">
        <r>  -25.5621 </r>
        <r>  -25.5438 </r>
        <r>  -25.5434 </r>
        <r>  -25.5433 </r>
        <r>  -10.9383 </r>
        <r>  -10.9382 </r>
        <r>  -10.9368 </r>
        <r>  -10.8765 </r>
        <r>   -8.9920 </r>
        <r>   -8.9899 </r>
        <r>   -8.9893 </r>
        <r>   -8.8911 </r>
        <r>   -8.8860 </r>
        <r>   -8.8155 </r>
        <r>   -8.8102 </r>
        <r>   -8.8089 </r>
        <r>   -7.9104 </r>
        <r>   -7.4528 </r>
        <r>   -7.4429 </r>
        <r>   -7.4428 </r>
        <r>    0.0859 </r>
        <r>    0.0871 </r>
        <r>    0.0946 </r>
        <r>    0.6040 </r>
        <r>    0.6053 </r>
        <r>    0.6149 </r>
        <r>    0.7657 </r>
        <r>    0.7748 </r>
        <r>    2.7459 </r>
        <r>    4.9790 </r>
        <r>    5.2752 </r>
        <r>    5.3019 </r>
        <r>    6.1078 </r>
        <r>    6.1314 </r>
        <r>    6.4447 </r>
        <r>    6.7422 </r>
        <r>    6.7937 </r>
        <r>    6.8968 </r>
        <r>    8.5873 </r>
        <r>    8.7515 </r>
        <r>    8.9022 </r>
        <r>    9.0878 </r>
        <r>    9.1872 </r>
        <r>    9.3229 </r>
        <r>    9.7184 </r>
        <r>    9.8462 </r>
        <r>   10.2137 </r>
        <r>   10.6691 </r>
       </set>
       <set comment="kpoint 12">
        <r>  -25.5620 </r>
        <r>  -25.5439 </r>
        <r>  -25.5434 </r>
        <r>  -25.5433 </r>
        <r>  -10.9383 </r>
        <r>  -10.9382 </r>
        <r>  -10.9364 </r>
        <r>  -10.8768 </r>
        <r>   -8.9920 </r>
        <r>   -8.9895 </r>
        <r>   -8.9887 </r>
        <r>   -8.8919 </r>
        <r>   -8.8857 </r>
        <r>   -8.8172 </r>
        <r>   -8.8110 </r>
        <r>   -8.8095 </r>
        <r>   -7.9064 </r>
        <r>   -7.4547 </r>
        <r>   -7.4427 </r>
        <r>   -7.4426 </r>
        <r>    0.0883 </r>
        <r>    0.0898 </r>
        <r>    0.0989 </r>
        <r>    0.6026 </r>
        <r>    0.6042 </r>
        <r>    0.6158 </r>
        <r>    0.7627 </r>
        <r>    0.7739 </r>
        <r>    2.7507 </r>
        <r>    4.9333 </r>
        <r>    5.2760 </r>
        <r>    5.3081 </r>
        <r>    6.1050 </r>
        <r>    6.1332 </r>
        <r>    6.4952 </r>
        <r>    6.7181 </r>
        <r>    6.7802 </r>
        <r>    6.9023 </r>
        <r>    8.5759 </r>
        <r>    8.7721 </r>
        <r>    8.8747 </r>
        <r>    9.0896 </r>
        <r>    9.2067 </r>
        <r>    9.2774 </r>
        <r>    9.7263 </r>
        <r>    9.8686 </r>
        <r>   10.2410 </r>
        <r>   10.7375 </r>
       </set>
       <set comment="kpoint 13">
        <r>  -25.5619 </r>
        <r>  -25.5441 </r>
        <r>  -25.5434 </r>
        <r>  -25.5433 </r>
        <r>  -10.9382 </r>
        <r>  -10.9381 </r>
        <r>  -10.9360 </r>
        <r>  -10.8772 </r>
        <r>   -8.9919 </r>
        <r>   -8.9890 </r>
        <r>   -8.9881 </r>
        <r>   -8.8926 </r>
        <r>   -8.8853 </r>
        <r>   -8.8191 </r>
        <r>   -8.8119 </r>
        <r>   -8.8100 </r>
        <r>   -7.9022 </r>
        <r>   -7.4568 </r>
        <r>   -7.4425 </r>
        <r>   -7.4424 </r>
        <r>    0.0911 </r>
        <r>    0.0928 </r>
        <r>    0.1037 </r>
        <r>    0.6011 </r>
        <r>    0.6029 </r>
        <r>    0.6168 </r>
        <r>    0.7595 </r>
        <r>    0.7728 </r>
        <r>    2.7561 </r>
        <r>    4.8867 </r>
        <r>    5.2770 </r>
        <r>    5.3149 </r>
        <r>    6.1019 </r>
        <r>    6.1351 </r>
        <r>    6.5455 </r>
        <r>    6.6926 </r>
        <r>    6.7675 </r>
        <r>    6.9085 </r>
        <r>    8.5631 </r>
        <r>    8.7937 </r>
        <r>    8.8470 </r>
        <r>    9.0915 </r>
        <r>    9.2267 </r>
        <r>    9.2332 </r>
        <r>    9.7360 </r>
        <r>    9.8908 </r>
        <r>   10.2707 </r>
        <r>   10.8074 </r>
       </set>
       <set comment="kpoint 14">
        <r>  -25.5617 </r>
        <r>  -25.5442 </r>
        <r>  -25.5434 </r>
        <r>  -25.5433 </r>
        <r>  -10.9382 </r>
        <r>  -10.9381 </r>
        <r>  -10.9356 </r>
        <r>  -10.8776 </r>
        <r>   -8.9919 </r>
        <r>   -8.9885 </r>
        <r>   -8.9875 </r>
        <r>   -8.8935 </r>
        <r>   -8.8848 </r>
        <r>   -8.8212 </r>
        <r>   -8.8128 </r>
        <r>   -8.8107 </r>
        <r>   -7.8977 </r>
        <r>   -7.4591 </r>
        <r>   -7.4423 </r>
        <r>   -7.4422 </r>
        <r>    0.0940 </r>
        <r>    0.0960 </r>
        <r>    0.1088 </r>
        <r>    0.5995 </r>
        <r>    0.6016 </r>
        <r>    0.6178 </r>
        <r>    0.7560 </r>
        <r>    0.7717 </r>
        <r>    2.7619 </r>
        <r>    4.8396 </r>
        <r>    5.2782 </r>
        <r>    5.3223 </r>
        <r>    6.0986 </r>
        <r>    6.1370 </r>
        <r>    6.5930 </r>
        <r>    6.6661 </r>
        <r>    6.7579 </r>
        <r>    6.9151 </r>
        <r>    8.5490 </r>
        <r>    8.8157 </r>
        <r>    8.8192 </r>
        <r>    9.0936 </r>
        <r>    9.1907 </r>
        <r>    9.2467 </r>
        <r>    9.7477 </r>
        <r>    9.9124 </r>
        <r>   10.3027 </r>
        <r>   10.8785 </r>
       </set>
       <set comment="kpoint 15">
        <r>  -25.5616 </r>
        <r>  -25.5443 </r>
        <r>  -25.5433 </r>
        <r>  -25.5433 </r>
        <r>  -10.9381 </r>
        <r>  -10.9380 </r>
        <r>  -10.9352 </r>
        <r>  -10.8780 </r>
        <r>   -8.9919 </r>
        <r>   -8.9879 </r>
        <r>   -8.9868 </r>
        <r>   -8.8944 </r>
        <r>   -8.8844 </r>
        <r>   -8.8233 </r>
        <r>   -8.8138 </r>
        <r>   -8.8113 </r>
        <r>   -7.8929 </r>
        <r>   -7.4616 </r>
        <r>   -7.4421 </r>
        <r>   -7.4420 </r>
        <r>    0.0971 </r>
        <r>    0.0994 </r>
        <r>    0.1143 </r>
        <r>    0.5977 </r>
        <r>    0.6002 </r>
        <r>    0.6190 </r>
        <r>    0.7522 </r>
        <r>    0.7704 </r>
        <r>    2.7683 </r>
        <r>    4.7920 </r>
        <r>    5.2796 </r>
        <r>    5.3302 </r>
        <r>    6.0950 </r>
        <r>    6.1390 </r>
        <r>    6.6311 </r>
        <r>    6.6385 </r>
        <r>    6.7578 </r>
        <r>    6.9223 </r>
        <r>    8.5336 </r>
        <r>    8.7916 </r>
        <r>    8.8378 </r>
        <r>    9.0958 </r>
        <r>    9.1503 </r>
        <r>    9.2665 </r>
        <r>    9.7619 </r>
        <r>    9.9332 </r>
        <r>   10.3370 </r>
        <r>   10.9508 </r>
       </set>
       <set comment="kpoint 16">
        <r>  -25.5615 </r>
        <r>  -25.5444 </r>
        <r>  -25.5433 </r>
        <r>  -25.5433 </r>
        <r>  -10.9381 </r>
        <r>  -10.9380 </r>
        <r>  -10.9347 </r>
        <r>  -10.8785 </r>
        <r>   -8.9918 </r>
        <r>   -8.9873 </r>
        <r>   -8.9862 </r>
        <r>   -8.8953 </r>
        <r>   -8.8839 </r>
        <r>   -8.8255 </r>
        <r>   -8.8149 </r>
        <r>   -8.8121 </r>
        <r>   -7.8878 </r>
        <r>   -7.4642 </r>
        <r>   -7.4419 </r>
        <r>   -7.4418 </r>
        <r>    0.1004 </r>
        <r>    0.1030 </r>
        <r>    0.1202 </r>
        <r>    0.5959 </r>
        <r>    0.5987 </r>
        <r>    0.6202 </r>
        <r>    0.7481 </r>
        <r>    0.7691 </r>
        <r>    2.7752 </r>
        <r>    4.7441 </r>
        <r>    5.2811 </r>
        <r>    5.3387 </r>
        <r>    6.0911 </r>
        <r>    6.1410 </r>
        <r>    6.6102 </r>
        <r>    6.6487 </r>
        <r>    6.7783 </r>
        <r>    6.9301 </r>
        <r>    8.5167 </r>
        <r>    8.7642 </r>
        <r>    8.8591 </r>
        <r>    9.0980 </r>
        <r>    9.1129 </r>
        <r>    9.2856 </r>
        <r>    9.7789 </r>
        <r>    9.9531 </r>
        <r>   10.3736 </r>
        <r>   11.0242 </r>
       </set>
       <set comment="kpoint 17">
        <r>  -25.5613 </r>
        <r>  -25.5446 </r>
        <r>  -25.5433 </r>
        <r>  -25.5433 </r>
        <r>  -10.9380 </r>
        <r>  -10.9379 </r>
        <r>  -10.9342 </r>
        <r>  -10.8790 </r>
        <r>   -8.9918 </r>
        <r>   -8.9867 </r>
        <r>   -8.9854 </r>
        <r>   -8.8963 </r>
        <r>   -8.8834 </r>
        <r>   -8.8278 </r>
        <r>   -8.8160 </r>
        <r>   -8.8128 </r>
        <r>   -7.8824 </r>
        <r>   -7.4670 </r>
        <r>   -7.4416 </r>
        <r>   -7.4416 </r>
        <r>    0.1039 </r>
        <r>    0.1068 </r>
        <r>    0.1264 </r>
        <r>    0.5939 </r>
        <r>    0.5970 </r>
        <r>    0.6215 </r>
        <r>    0.7437 </r>
        <r>    0.7677 </r>
        <r>    2.7827 </r>
        <r>    4.6961 </r>
        <r>    5.2829 </r>
        <r>    5.3478 </r>
        <r>    6.0869 </r>
        <r>    6.1430 </r>
        <r>    6.5812 </r>
        <r>    6.6456 </r>
        <r>    6.8196 </r>
        <r>    6.9384 </r>
        <r>    8.4982 </r>
        <r>    8.7373 </r>
        <r>    8.8782 </r>
        <r>    9.0801 </r>
        <r>    9.1004 </r>
        <r>    9.3036 </r>
        <r>    9.7989 </r>
        <r>    9.9720 </r>
        <r>   10.4124 </r>
        <r>   11.0986 </r>
       </set>
       <set comment="kpoint 18">
        <r>  -25.5611 </r>
        <r>  -25.5447 </r>
        <r>  -25.5433 </r>
        <r>  -25.5433 </r>
        <r>  -10.9380 </r>
        <r>  -10.9378 </r>
        <r>  -10.9337 </r>
        <r>  -10.8795 </r>
        <r>   -8.9917 </r>
        <r>   -8.9860 </r>
        <r>   -8.9847 </r>
        <r>   -8.8974 </r>
        <r>   -8.8828 </r>
        <r>   -8.8302 </r>
        <r>   -8.8172 </r>
        <r>   -8.8136 </r>
        <r>   -7.8767 </r>
        <r>   -7.4700 </r>
        <r>   -7.4413 </r>
        <r>   -7.4413 </r>
        <r>    0.1075 </r>
        <r>    0.1107 </r>
        <r>    0.1330 </r>
        <r>    0.5919 </r>
        <r>    0.5953 </r>
        <r>    0.6228 </r>
        <r>    0.7390 </r>
        <r>    0.7662 </r>
        <r>    2.7908 </r>
        <r>    4.6481 </r>
        <r>    5.2850 </r>
        <r>    5.3574 </r>
        <r>    6.0825 </r>
        <r>    6.1450 </r>
        <r>    6.5518 </r>
        <r>    6.6322 </r>
        <r>    6.8712 </r>
        <r>    6.9473 </r>
        <r>    8.4783 </r>
        <r>    8.7109 </r>
        <r>    8.8921 </r>
        <r>    9.0547 </r>
[...]
      </set>
      <set comment="kpoint 44">
       <r>  -25.5475    1.0000 </r>
       <r>  -25.5475    1.0000 </r>
       <r>  -25.5475    1.0000 </r>
       <r>  -25.5475    1.0000 </r>
       <r>  -10.9310    1.0000 </r>
       <r>  -10.9310    1.0000 </r>
       <r>  -10.9310    1.0000 </r>
       <r>  -10.9310    1.0000 </r>
       <r>   -8.9927    1.0000 </r>
       <r>   -8.9927    1.0000 </r>
       <r>   -8.9927    1.0000 </r>
       <r>   -8.9927    1.0000 </r>
       <r>   -8.8065    1.0000 </r>
       <r>   -8.8065    1.0000 </r>
       <r>   -8.8065    1.0000 </r>
       <r>   -8.8065    1.0000 </r>
       <r>   -7.5525    1.0000 </r>
       <r>   -7.5525    1.0000 </r>
       <r>   -7.5525    1.0000 </r>
       <r>   -7.5525    1.0000 </r>
       <r>    0.4528    0.0000 </r>
       <r>    0.4528    0.0000 </r>
       <r>    0.4528    0.0000 </r>
       <r>    0.4528    0.0000 </r>
       <r>    0.5758    0.0000 </r>
       <r>    0.5758    0.0000 </r>
       <r>    0.5758    0.0000 </r>
       <r>    0.5758    0.0000 </r>
       <r>    4.1779    0.0000 </r>
       <r>    4.1779    0.0000 </r>
       <r>    4.1779    0.0000 </r>
       <r>    4.1779    0.0000 </r>
       <r>    5.3904    0.0000 </r>
       <r>    5.3904    0.0000 </r>
       <r>    5.3904    0.0000 </r>
       <r>    5.3904    0.0000 </r>
       <r>    9.2243    0.0000 </r>
       <r>    9.2243    0.0000 </r>
       <r>    9.2243    0.0000 </r>
       <r>    9.2243    0.0000 </r>
       <r>   10.0448    0.0000 </r>
       <r>   10.0448    0.0000 </r>
       <r>   10.0448    0.0000 </r>
       <r>   10.0448    0.0000 </r>
       <r>   10.6964    0.0000 </r>
       <r>   10.6964    0.0000 </r>
       <r>   10.6964    0.0000 </r>
       <r>   10.6964    0.0000 </r>
      </set>
      <set comment="kpoint 45">
       <r>  -25.5474    1.0000 </r>
       <r>  -25.5474    1.0000 </r>
       <r>  -25.5474    1.0000 </r>
       <r>  -25.5474    1.0000 </r>
       <r>  -10.9320    1.0000 </r>
       <r>  -10.9320    1.0000 </r>
       <r>  -10.9320    1.0000 </r>
       <r>  -10.9320    1.0000 </r>
       <r>   -8.9948    1.0000 </r>
       <r>   -8.9948    1.0000 </r>
       <r>   -8.9948    1.0000 </r>
       <r>   -8.9948    1.0000 </r>
       <r>   -8.8009    1.0000 </r>
       <r>   -8.8009    1.0000 </r>
       <r>   -8.8009    1.0000 </r>
       <r>   -8.8009    1.0000 </r>
       <r>   -7.5550    1.0000 </r>
       <r>   -7.5550    1.0000 </r>
       <r>   -7.5550    1.0000 </r>
       <r>   -7.5550    1.0000 </r>
       <r>    0.4519    0.0000 </r>
       <r>    0.4519    0.0000 </r>
       <r>    0.4519    0.0000 </r>
       <r>    0.4519    0.0000 </r>
       <r>    0.5825    0.0000 </r>
       <r>    0.5825    0.0000 </r>
       <r>    0.5825    0.0000 </r>
       <r>    0.5825    0.0000 </r>
       <r>    4.2354    0.0000 </r>
       <r>    4.2354    0.0000 </r>
       <r>    4.2354    0.0000 </r>
       <r>    4.2354    0.0000 </r>
       <r>    5.2494    0.0000 </r>
       <r>    5.2494    0.0000 </r>
       <r>    5.2494    0.0000 </r>
       <r>    5.2494    0.0000 </r>
       <r>    9.8834    0.0000 </r>
       <r>    9.8834    0.0000 </r>
       <r>    9.8834    0.0000 </r>
       <r>    9.8834    0.0000 </r>
       <r>    9.9494    0.0000 </r>
       <r>    9.9494    0.0000 </r>
       <r>    9.9494    0.0000 </r>
       <r>    9.9494    0.0000 </r>
       <r>   10.1967    0.0000 </r>
       <r>   10.1967    0.0000 </r>
       <r>   10.1967    0.0000 </r>
       <r>   10.1967    0.0000 </r>
      </set>
     </set>
    </set>
   </array>
  </eigenvalues>
  <separator name="orbital magnetization" >
   <v name="MAGDIPOLOUT">      0.00000000      0.00000000      0.00000000</v>
  </separator>
  <dos>
   <i name="efermi">     -7.11834450 </i>
   <total>
    <array>
     <dimension dim="1">gridpoints</dimension>
     <dimension dim="2">spin</dimension>
     <field>energy</field>
     <field>total</field>
     <field>integrated</field>
     <set>
      <set comment="spin 1">
       <r>   -27.4323     0.0000     0.0000 </r>
       <r>   -27.2951     0.0000     0.0000 </r>
       <r>   -27.1580     0.0000     0.0000 </r>
       <r>   -27.0209     0.0000     0.0000 </r>
       <r>   -26.8837     0.0000     0.0000 </r>
       <r>   -26.7466     0.0000     0.0000 </r>
       <r>   -26.6094     0.0000     0.0000 </r>
       <r>   -26.4723     0.0000     0.0000 </r>
       <r>   -26.3352     0.0000     0.0000 </r>
       <r>   -26.1980     0.0000     0.0000 </r>
       <r>   -26.0609     0.0000     0.0000 </r>
       <r>   -25.9237     0.0000     0.0000 </r>
       <r>   -25.7866     0.0000     0.0000 </r>
       <r>   -25.6495     0.1242     0.0170 </r>
       <r>   -25.5123    48.8393     6.7149 </r>
       <r>   -25.3752     9.3708     8.0000 </r>
       <r>   -25.2380     0.0000     8.0000 </r>
       <r>   -25.1009     0.0000     8.0000 </r>
       <r>   -24.9638     0.0000     8.0000 </r>
       <r>   -24.8266     0.0000     8.0000 </r>
       <r>   -24.6895     0.0000     8.0000 </r>
       <r>   -24.5523     0.0000     8.0000 </r>
       <r>   -24.4152     0.0000     8.0000 </r>
       <r>   -24.2781     0.0000     8.0000 </r>
       <r>   -24.1409     0.0000     8.0000 </r>
       <r>   -24.0038     0.0000     8.0000 </r>
       <r>   -23.8666     0.0000     8.0000 </r>
       <r>   -23.7295     0.0000     8.0000 </r>
       <r>   -23.5924     0.0000     8.0000 </r>
       <r>   -23.4552     0.0000     8.0000 </r>
       <r>   -23.3181     0.0000     8.0000 </r>
       <r>   -23.1809     0.0000     8.0000 </r>
       <r>   -23.0438     0.0000     8.0000 </r>
       <r>   -22.9066     0.0000     8.0000 </r>
       <r>   -22.7695     0.0000     8.0000 </r>
       <r>   -22.6324     0.0000     8.0000 </r>
       <r>   -22.4952     0.0000     8.0000 </r>
       <r>   -22.3581     0.0000     8.0000 </r>
       <r>   -22.2209     0.0000     8.0000 </r>
       <r>   -22.0838     0.0000     8.0000 </r>
       <r>   -21.9467     0.0000     8.0000 </r>
       <r>   -21.8095     0.0000     8.0000 </r>
       <r>   -21.6724     0.0000     8.0000 </r>
       <r>   -21.5352     0.0000     8.0000 </r>
       <r>   -21.3981     0.0000     8.0000 </r>
       <r>   -21.2610     0.0000     8.0000 </r>
       <r>   -21.1238     0.0000     8.0000 </r>
       <r>   -20.9867     0.0000     8.0000 </r>
       <r>   -20.8495     0.0000     8.0000 </r>
       <r>   -20.7124     0.0000     8.0000 </r>
       <r>   -20.5753     0.0000     8.0000 </r>
       <r>   -20.4381     0.0000     8.0000 </r>
       <r>   -20.3010     0.0000     8.0000 </r>
       <r>   -20.1638     0.0000     8.0000 </r>
       <r>   -20.0267     0.0000     8.0000 </r>
       <r>   -19.8896     0.0000     8.0000 </r>
       <r>   -19.7524     0.0000     8.0000 </r>
       <r>   -19.6153     0.0000     8.0000 </r>
       <r>   -19.4781     0.0000     8.0000 </r>
       <r>   -19.3410     0.0000     8.0000 </r>
       <r>   -19.2039     0.0000     8.0000 </r>
       <r>   -19.0667     0.0000     8.0000 </r>
       <r>   -18.9296     0.0000     8.0000 </r>
       <r>   -18.7924     0.0000     8.0000 </r>
       <r>   -18.6553     0.0000     8.0000 </r>
       <r>   -18.5182     0.0000     8.0000 </r>
       <r>   -18.3810     0.0000     8.0000 </r>
       <r>   -18.2439     0.0000     8.0000 </r>
       <r>   -18.1067     0.0000     8.0000 </r>
       <r>   -17.9696     0.0000     8.0000 </r>
       <r>   -17.8324     0.0000     8.0000 </r>
       <r>   -17.6953     0.0000     8.0000 </r>
       <r>   -17.5582     0.0000     8.0000 </r>
       <r>   -17.4210     0.0000     8.0000 </r>
       <r>   -17.2839     0.0000     8.0000 </r>
       <r>   -17.1467     0.0000     8.0000 </r>
       <r>   -17.0096     0.0000     8.0000 </r>
       <r>   -16.8725     0.0000     8.0000 </r>
       <r>   -16.7353     0.0000     8.0000 </r>
       <r>   -16.5982     0.0000     8.0000 </r>
       <r>   -16.4610     0.0000     8.0000 </r>
       <r>   -16.3239     0.0000     8.0000 </r>
       <r>   -16.1868     0.0000     8.0000 </r>
       <r>   -16.0496     0.0000     8.0000 </r>
       <r>   -15.9125     0.0000     8.0000 </r>
       <r>   -15.7753     0.0000     8.0000 </r>
       <r>   -15.6382     0.0000     8.0000 </r>
       <r>   -15.5011     0.0000     8.0000 </r>
       <r>   -15.3639     0.0000     8.0000 </r>
       <r>   -15.2268     0.0000     8.0000 </r>
       <r>   -15.0896     0.0000     8.0000 </r>
       <r>   -14.9525     0.0000     8.0000 </r>
       <r>   -14.8154     0.0000     8.0000 </r>
       <r>   -14.6782     0.0000     8.0000 </r>
       <r>   -14.5411     0.0000     8.0000 </r>
       <r>   -14.4039     0.0000     8.0000 </r>
       <r>   -14.2668     0.0000     8.0000 </r>
       <r>   -14.1297     0.0000     8.0000 </r>
       <r>   -13.9925     0.0000     8.0000 </r>
       <r>   -13.8554     0.0000     8.0000 </r>
       <r>   -13.7182     0.0000     8.0000 </r>
       <r>   -13.5811     0.0000     8.0000 </r>
       <r>   -13.4440     0.0000     8.0000 </r>
       <r>   -13.3068     0.0000     8.0000 </r>
       <r>   -13.1697     0.0000     8.0000 </r>
       <r>   -13.0325     0.0000     8.0000 </r>
       <r>   -12.8954     0.0000     8.0000 </r>
       <r>   -12.7582     0.0000     8.0000 </r>
       <r>   -12.6211     0.0000     8.0000 </r>
       <r>   -12.4840     0.0000     8.0000 </r>
       <r>   -12.3468     0.0000     8.0000 </r>
       <r>   -12.2097     0.0000     8.0000 </r>
       <r>   -12.0725     0.0000     8.0000 </r>
       <r>   -11.9354     0.0000     8.0000 </r>
       <r>   -11.7983     0.0000     8.0000 </r>
       <r>   -11.6611     0.0000     8.0000 </r>
       <r>   -11.5240     0.0000     8.0000 </r>
       <r>   -11.3868     0.0000     8.0000 </r>
       <r>   -11.2497     0.0000     8.0000 </r>
       <r>   -11.1126     0.0000     8.0000 </r>
       <r>   -10.9754     4.9587     8.6800 </r>
       <r>   -10.8383    52.5936    15.8928 </r>
       <r>   -10.7011     0.7820    16.0000 </r>
       <r>   -10.5640     0.0000    16.0000 </r>
       <r>   -10.4269     0.0000    16.0000 </r>
       <r>   -10.2897     0.0000    16.0000 </r>
       <r>   -10.1526     0.0000    16.0000 </r>
       <r>   -10.0154     0.0000    16.0000 </r>
       <r>    -9.8783     0.0000    16.0000 </r>
       <r>    -9.7412     0.0000    16.0000 </r>
       <r>    -9.6040     0.0000    16.0000 </r>
       <r>    -9.4669     0.0000    16.0000 </r>
       <r>    -9.3297     0.0000    16.0000 </r>
       <r>    -9.1926     0.0000    16.0000 </r>
       <r>    -9.0555     1.3649    16.1872 </r>
       <r>    -8.9183    51.9017    23.3050 </r>
       <r>    -8.7812    59.0186    31.3989 </r>
       <r>    -8.6440     4.3834    32.0000 </r>
       <r>    -8.5069     0.0000    32.0000 </r>
       <r>    -8.3698     0.0000    32.0000 </r>
       <r>    -8.2326     0.0000    32.0000 </r>
       <r>    -8.0955     0.0000    32.0000 </r>
       <r>    -7.9583     0.0193    32.0027 </r>
       <r>    -7.8212     1.2458    32.1735 </r>
       <r>    -7.6840     4.9033    32.8459 </r>
       <r>    -7.5469    16.4556    35.1027 </r>
       <r>    -7.4098    33.6827    39.7219 </r>
       <r>    -7.2726     2.0275    40.0000 </r>
       <r>    -7.1355     0.0000    40.0000 </r>
       <r>    -6.9983     0.0000    40.0000 </r>
       <r>    -6.8612     0.0000    40.0000 </r>
       <r>    -6.7241     0.0000    40.0000 </r>
       <r>    -6.5869     0.0000    40.0000 </r>
       <r>    -6.4498     0.0000    40.0000 </r>
       <r>    -6.3126     0.0000    40.0000 </r>
       <r>    -6.1755     0.0000    40.0000 </r>
       <r>    -6.0384     0.0000    40.0000 </r>
       <r>    -5.9012     0.0000    40.0000 </r>
       <r>    -5.7641     0.0000    40.0000 </r>
       <r>    -5.6269     0.0000    40.0000 </r>
       <r>    -5.4898     0.0000    40.0000 </r>
       <r>    -5.3527     0.0000    40.0000 </r>
       <r>    -5.2155     0.0000    40.0000 </r>
       <r>    -5.0784     0.0000    40.0000 </r>
       <r>    -4.9412     0.0000    40.0000 </r>
       <r>    -4.8041     0.0000    40.0000 </r>
       <r>    -4.6670     0.0000    40.0000 </r>
       <r>    -4.5298     0.0000    40.0000 </r>
       <r>    -4.3927     0.0000    40.0000 </r>
       <r>    -4.2555     0.0000    40.0000 </r>
       <r>    -4.1184     0.0000    40.0000 </r>
       <r>    -3.9813     0.0000    40.0000 </r>
       <r>    -3.8441     0.0000    40.0000 </r>
       <r>    -3.7070     0.0000    40.0000 </r>
       <r>    -3.5698     0.0000    40.0000 </r>
       <r>    -3.4327     0.0000    40.0000 </r>
       <r>    -3.2956     0.0000    40.0000 </r>
       <r>    -3.1584     0.0000    40.0000 </r>
       <r>    -3.0213     0.0000    40.0000 </r>
       <r>    -2.8841     0.0000    40.0000 </r>
       <r>    -2.7470     0.0000    40.0000 </r>
       <r>    -2.6098     0.0000    40.0000 </r>
       <r>    -2.4727     0.0000    40.0000 </r>
       <r>    -2.3356     0.0000    40.0000 </r>
       <r>    -2.1984     0.0000    40.0000 </r>
       <r>    -2.0613     0.0000    40.0000 </r>
       <r>    -1.9241     0.0000    40.0000 </r>
       <r>    -1.7870     0.0000    40.0000 </r>
       <r>    -1.6499     0.0000    40.0000 </r>
       <r>    -1.5127     0.0000    40.0000 </r>
       <r>    -1.3756     0.0000    40.0000 </r>
       <r>    -1.2384     0.0000    40.0000 </r>
       <r>    -1.1013     0.0000    40.0000 </r>
       <r>    -0.9642     0.0000    40.0000 </r>
       <r>    -0.8270     0.0000    40.0000 </r>
       <r>    -0.6899     0.0000    40.0000 </r>
       <r>    -0.5527     0.0000    40.0000 </r>
       <r>    -0.4156     0.0000    40.0000 </r>
       <r>    -0.2785     0.0000    40.0000 </r>
       <r>    -0.1413     0.0000    40.0000 </r>
       <r>    -0.0042     0.0029    40.0004 </r>
       <r>     0.1330     2.1484    40.2950 </r>
       <r>     0.2701    13.0739    42.0880 </r>
       <r>     0.4072    18.3562    44.6054 </r>
       <r>     0.5444    31.2217    48.8871 </r>
       <r>     0.6815    43.5818    54.8639 </r>
       <r>     0.8187     8.2014    55.9887 </r>
       <r>     0.9558     0.0825    56.0000 </r>
       <r>     1.0929     0.0000    56.0000 </r>
       <r>     1.2301     0.0000    56.0000 </r>
       <r>     1.3672     0.0000    56.0000 </r>
       <r>     1.5044     0.0000    56.0000 </r>
       <r>     1.6415     0.0000    56.0000 </r>
       <r>     1.7786     0.0000    56.0000 </r>
       <r>     1.9158     0.0000    56.0000 </r>
       <r>     2.0529     0.0000    56.0000 </r>
       <r>     2.1901     0.0000    56.0000 </r>
       <r>     2.3272     0.0000    56.0000 </r>
       <r>     2.4644     0.0000    56.0000 </r>
       <r>     2.6015     0.0000    56.0000 </r>
       <r>     2.7386     0.1006    56.0138 </r>
       <r>     2.8758     0.9878    56.1493 </r>
       <r>     3.0129     1.5912    56.3675 </r>
       <r>     3.1501     2.0885    56.6539 </r>
       <r>     3.2872     2.2969    56.9689 </r>
       <r>     3.4243     2.1082    57.2580 </r>
       <r>     3.5615     3.3552    57.7182 </r>
       <r>     3.6986     2.0808    58.0035 </r>
       <r>     3.8358     3.1461    58.4350 </r>
       <r>     3.9729     3.7089    58.9436 </r>
       <r>     4.1100     3.9512    59.4855 </r>
       <r>     4.2472     2.9525    59.8904 </r>
       <r>     4.3843     5.2905    60.6159 </r>
       <r>     4.5215     3.9974    61.1641 </r>
       <r>     4.6586     3.6127    61.6596 </r>
       <r>     4.7957     3.3720    62.1220 </r>
       <r>     4.9329     2.6312    62.4829 </r>
       <r>     5.0700     3.3391    62.9408 </r>
       <r>     5.2072     2.9897    63.3508 </r>
       <r>     5.3443     2.9816    63.7597 </r>
       <r>     5.4814     3.7104    64.2686 </r>
       <r>     5.6186     5.0958    64.9674 </r>
       <r>     5.7557     6.5081    65.8599 </r>
       <r>     5.8929     4.4245    66.4667 </r>
       <r>     6.0300     5.0987    67.1659 </r>
       <r>     6.1671     4.9969    67.8512 </r>
       <r>     6.3043     4.6983    68.4956 </r>
       <r>     6.4414     4.5127    69.1144 </r>
       <r>     6.5786     7.4380    70.1345 </r>
       <r>     6.7157     5.2671    70.8568 </r>
       <r>     6.8528     7.3905    71.8704 </r>
       <r>     6.9900     4.1547    72.4401 </r>
       <r>     7.1271     2.0017    72.7146 </r>
       <r>     7.2643     6.0338    73.5421 </r>
       <r>     7.4014     5.2578    74.2632 </r>
       <r>     7.5386     3.2313    74.7063 </r>
       <r>     7.6757     4.1187    75.2712 </r>
       <r>     7.8128     3.3617    75.7322 </r>
       <r>     7.9500     3.8003    76.2534 </r>
       <r>     8.0871     2.5034    76.5967 </r>
       <r>     8.2243     4.3676    77.1957 </r>
       <r>     8.3614     2.9312    77.5976 </r>
       <r>     8.4985     3.0304    78.0132 </r>
       <r>     8.6357     5.2325    78.7308 </r>
       <r>     8.7728     4.9392    79.4082 </r>
       <r>     8.9100     5.7557    80.1975 </r>
       <r>     9.0471     4.0420    80.7518 </r>
       <r>     9.1842     5.9871    81.5729 </r>
       <r>     9.3214     8.3827    82.7225 </r>
       <r>     9.4585     7.4186    83.7399 </r>
       <r>     9.5957     5.7863    84.5334 </r>
       <r>     9.7328     9.5309    85.8405 </r>
       <r>     9.8699     6.1578    86.6850 </r>
       <r>    10.0071     5.4292    87.4296 </r>
       <r>    10.1442    10.0130    88.8027 </r>
       <r>    10.2814     4.9167    89.4770 </r>
       <r>    10.4185     2.7042    89.8479 </r>
       <r>    10.5556     5.3297    90.5788 </r>
       <r>    10.6928     5.5235    91.3363 </r>
       <r>    10.8299     3.2359    91.7801 </r>
       <r>    10.9671     4.7359    92.4296 </r>
       <r>    11.1042     5.4050    93.1708 </r>
       <r>    11.2413     3.3277    93.6272 </r>
       <r>    11.3785     4.1957    94.2026 </r>
       <r>    11.5156     3.1743    94.6379 </r>
       <r>    11.6528     3.8461    95.1653 </r>
       <r>    11.7899     5.5291    95.9236 </r>
       <r>    11.9270     0.5548    95.9997 </r>
       <r>    12.0642     0.0023    96.0000 </r>
       <r>    12.2013     0.0000    96.0000 </r>
       <r>    12.3385     0.0000    96.0000 </r>
       <r>    12.4756     0.0000    96.0000 </r>
       <r>    12.6128     0.0000    96.0000 </r>
       <r>    12.7499     0.0000    96.0000 </r>
       <r>    12.8870     0.0000    96.0000 </r>
       <r>    13.0242     0.0000    96.0000 </r>
       <r>    13.1613     0.0000    96.0000 </r>
       <r>    13.2985     0.0000    96.0000 </r>
       <r>    13.4356     0.0000    96.0000 </r>
       <r>    13.5727     0.0000    96.0000 </r>
       <r>    13.7099     0.0000    96.0000 </r>
      </set>
     </set>
    </array>
   </total>
  </dos>
 </calculation>
 <structure name="finalpos" >
  <crystal>
   <varray name="basis" >
    <v>       6.19019000       0.00000000       0.00000000 </v>
    <v>       0.00000000       6.19019000       0.00000000 </v>
    <v>       0.00000000       0.00000000       6.19019000 </v>
   </varray>
   <i name="volume">    237.19849985 </i>
   <varray name="rec_basis" >
    <v>       0.16154593      -0.00000000       0.00000000 </v>
    <v>       0.00000000       0.16154593       0.00000000 </v>
    <v>      -0.00000000      -0.00000000       0.16154593 </v>
   </varray>
  </crystal>
  <varray name="positions" >
   <v>       0.05189000       0.05189000       0.05189000 </v>
   <v>       0.94811000       0.94811000       0.94811000 </v>
   <v>       0.44811000       0.94811000       0.55189000 </v>
   <v>       0.55189000       0.05189000       0.44811000 </v>
   <v>       0.94811000       0.55189000       0.44811000 </v>
   <v>       0.05189000       0.44811000       0.55189000 </v>
   <v>       0.55189000       0.44811000       0.94811000 </v>
   <v>       0.44811000       0.55189000       0.05189000 </v>
  </varray>
 </structure>
</modeling>
