N                                       
           1
     6.190190    0.000000    0.000000
     0.000000    6.190190    0.000000
     0.000000    0.000000    6.190190
   N 
     8
Direct configuration=     1
   0.05189000  0.05189000  0.05189000
   0.94811000  0.94811000  0.94811000
   0.44811000  0.94811000  0.55189000
   0.55189000  0.05189000  0.44811000
   0.94811000  0.55189000  0.44811000
   0.05189000  0.44811000  0.55189000
   0.55189000  0.44811000  0.94811000
   0.44811000  0.55189000  0.05189000
