 DBCSR| CPU Multiplication driver                                           BLAS (U)
 DBCSR| Multrec recursion limit                                              512 (U)
 DBCSR| Multiplication stack size                                           1000 (D)
 DBCSR| Maximum elements for images                                    UNLIMITED (U)
 DBCSR| Multiplicative factor virtual images                                   1 (U)
 DBCSR| Use multiplication densification                                       T (D)
 DBCSR| Multiplication size stacks                                             3 (U)
 DBCSR| Use memory pool for CPU allocation                                     F (U)
 DBCSR| Number of 3D layers                                               SINGLE (U)
 DBCSR| Use MPI memory allocation                                              F (U)
 DBCSR| Use RMA algorithm                                                      F (U)
 DBCSR| Use Communication thread                                               T (U)
 DBCSR| Communication thread load                                             45 (D)
 DBCSR| MPI: My process id                                                     0
 DBCSR| MPI: Number of processes                                               8
 DBCSR| OMP: Current number of threads                                        12
 DBCSR| OMP: Max number of threads                                            12
 DBCSR| Split modifier for TAS multiplication algorithm                  1.0E+00 (U)


  **** **** ******  **  PROGRAM STARTED AT               2025-08-07 23:51:09.089
 ***** ** ***  *** **   PROGRAM STARTED ON                          i04r06c05s06
 **    ****   ******    PROGRAM STARTED BY                               di38fab
 ***** **    ** ** **   PROGRAM PROCESS ID                                634524
  **** **  *******  **  PROGRAM STARTED IN /hppfs/scratch/04/di38fab/09_GTH/Delt
                                           a_Set/Hg/aug-SZV-MOLOPT-GTH-tier-1/8x
                                           8x8

 CP2K| version string:                 CP2K version 2025.1 (Development Version)
 CP2K| source code revision number:                                  git:3130539
 CP2K| cp2kflags: omp libint fftw3 libxc parallel scalapack max_contr=4         
 CP2K| is freely available from                            https://www.cp2k.org/
 CP2K| Program compiled at                         Tue Jun  3 16:14:32 CEST 2025
 CP2K| Program compiled on                                               login01
 CP2K| Program compiled for                                        Supermuc-foss
 CP2K| Data directory path                  /hppfs/work/pn36zo/di38fab/cp2k/data
 CP2K| Input file name                                                    GW.inp

 GLOBAL| Force Environment number                                              1
 GLOBAL| Basis set file name            /hppfs/scratch/04/di38fab/09_GTH/BASIS_A
 GLOBAL| Potential file name            /hppfs/work/pn36zo/di38fab/cp2k/data/GTH
 GLOBAL| MM Potential file name                                     MM_POTENTIAL
 GLOBAL| Coordinate file name                                             Hg.cif
 GLOBAL| Method name                                                        CP2K
 GLOBAL| Project name                                                       WSe2
 GLOBAL| Run type                                                         ENERGY
 GLOBAL| FFT library                                                       FFTW3
 GLOBAL| Diagonalization library                                       ScaLAPACK
 GLOBAL| Cholesky decomposition library                                ScaLAPACK
 GLOBAL| DGEMM library                                                      BLAS
 GLOBAL| Orthonormality check for eigenvectors                          DISABLED
 GLOBAL| Matrix multiplication library                                 ScaLAPACK
 GLOBAL| All-to-all communication in single precision                          F
 GLOBAL| FFTs using library dependent lengths                                  F
 GLOBAL| Grid backend                                                       AUTO
 GLOBAL| Global print level                                               MEDIUM
 GLOBAL| MPI I/O enabled                                                       T
 GLOBAL| Total number of message passing processes                             8
 GLOBAL| Number of threads for this process                                   12
 GLOBAL| This output is from process                                           0
 GLOBAL| OpenMP stack size per thread (OMP_STACKSIZE)                    default
 GLOBAL| CPU model name             Intel(R) Xeon(R) Platinum 8174 CPU @ 3.10GHz

 MEMORY| system memory details [Kb]
 MEMORY|                        rank 0           min           max       average
 MEMORY| MemTotal             98436660      98436660      98436664      98436662
 MEMORY| MemFree              84572464      84572464      84581560      84577012
 MEMORY| Buffers                     0             0             0             0
 MEMORY| Cached                2388680       2388680       2389268       2388974
 MEMORY| Slab                  1279892       1279892       1281908       1280900
 MEMORY| SReclaimable           278736        271472        278736        275104
 MEMORY| MemLikelyFree        87239880      87239880      87242300      87241090


 *** Fundamental physical constants (SI units) ***

 *** Literature: B. J. Mohr and B. N. Taylor,
 ***             CODATA recommended values of the fundamental physical
 ***             constants: 2006, Web Version 5.1
 ***             http://physics.nist.gov/constants

 Speed of light in vacuum [m/s]                             2.99792458000000E+08
 Magnetic constant or permeability of vacuum [N/A**2]       1.25663706143592E-06
 Electric constant or permittivity of vacuum [F/m]          8.85418781762039E-12
 Planck constant (h) [J*s]                                  6.62606896000000E-34
 Planck constant (h-bar) [J*s]                              1.05457162825177E-34
 Elementary charge [C]                                      1.60217648700000E-19
 Electron mass [kg]                                         9.10938215000000E-31
 Electron g factor [ ]                                     -2.00231930436220E+00
 Proton mass [kg]                                           1.67262163700000E-27
 Fine-structure constant                                    7.29735253760000E-03
 Rydberg constant [1/m]                                     1.09737315685270E+07
 Avogadro constant [1/mol]                                  6.02214179000000E+23
 Boltzmann constant [J/K]                                   1.38065040000000E-23
 Atomic mass unit [kg]                                      1.66053878200000E-27
 Bohr radius [m]                                            5.29177208590000E-11

 *** Conversion factors ***

 [u] -> [a.u.]                                              1.82288848426455E+03
 [Angstrom] -> [Bohr] = [a.u.]                              1.88972613288564E+00
 [a.u.] = [Bohr] -> [Angstrom]                              5.29177208590000E-01
 [a.u.] -> [s]                                              2.41888432650478E-17
 [a.u.] -> [fs]                                             2.41888432650478E-02
 [a.u.] -> [J]                                              4.35974393937059E-18
 [a.u.] -> [N]                                              8.23872205491840E-08
 [a.u.] -> [K]                                              3.15774647902944E+05
 [a.u.] -> [kJ/mol]                                         2.62549961709828E+03
 [a.u.] -> [kcal/mol]                                       6.27509468713739E+02
 [a.u.] -> [Pa]                                             2.94210107994716E+13
 [a.u.] -> [bar]                                            2.94210107994716E+08
 [a.u.] -> [atm]                                            2.90362800883016E+08
 [a.u.] -> [eV]                                             2.72113838565563E+01
 [a.u.] -> [Hz]                                             6.57968392072181E+15
 [a.u.] -> [1/cm] (wave numbers)                            2.19474631370540E+05
 [a.u./Bohr**2] -> [1/cm]                                   5.14048714338585E+03
 

 CELL_TOP| Volume [angstrom^3]:                                        59.735867
 CELL_TOP| Vector a [angstrom     4.103     0.000     0.000   |a| =     4.103050
 CELL_TOP| Vector b [angstrom     0.000     4.103     0.000   |b| =     4.103050
 CELL_TOP| Vector c [angstrom     0.000     0.000     3.548   |c| =     3.548310
 CELL_TOP| Angle (b,c), alpha [degree]:                                90.000000
 CELL_TOP| Angle (a,c), beta  [degree]:                                90.000000
 CELL_TOP| Angle (a,b), gamma [degree]:                                90.000000
 CELL_TOP| Numerically orthorhombic:                                         YES
 CELL_TOP| Periodicity                                                       XYZ

 CELL_CIF| Volume [angstrom^3]:                                        59.735867
 CELL_CIF| Vector a [angstrom     4.103     0.000     0.000   |a| =     4.103050
 CELL_CIF| Vector b [angstrom     0.000     4.103     0.000   |b| =     4.103050
 CELL_CIF| Vector c [angstrom     0.000     0.000     3.548   |c| =     3.548310
 CELL_CIF| Angle (b,c), alpha [degree]:                                90.000000
 CELL_CIF| Angle (a,c), beta  [degree]:                                90.000000
 CELL_CIF| Angle (a,b), gamma [degree]:                                90.000000
 CELL_CIF| Numerically orthorhombic:                                         YES
 CELL_CIF| Periodicity                                                       XYZ

 GENERATE|  Preliminary Number of Bonds generated:                             0
 GENERATE|  Achieved consistency in connectivity generation.

 CELL| Volume [angstrom^3]:                                            59.735867
 CELL| Vector a [angstrom]:       4.103     0.000     0.000   |a| =     4.103050
 CELL| Vector b [angstrom]:       0.000     4.103     0.000   |b| =     4.103050
 CELL| Vector c [angstrom]:       0.000     0.000     3.548   |c| =     3.548310
 CELL| Angle (b,c), alpha [degree]:                                    90.000000
 CELL| Angle (a,c), beta  [degree]:                                    90.000000
 CELL| Angle (a,b), gamma [degree]:                                    90.000000
 CELL| Numerically orthorhombic:                                             YES
 CELL| Periodicity                                                           XYZ

 CELL_REF| Volume [angstrom^3]:                                        59.735867
 CELL_REF| Vector a [angstrom     4.103     0.000     0.000   |a| =     4.103050
 CELL_REF| Vector b [angstrom     0.000     4.103     0.000   |b| =     4.103050
 CELL_REF| Vector c [angstrom     0.000     0.000     3.548   |c| =     3.548310
 CELL_REF| Angle (b,c), alpha [degree]:                                90.000000
 CELL_REF| Angle (a,c), beta  [degree]:                                90.000000
 CELL_REF| Angle (a,b), gamma [degree]:                                90.000000
 CELL_REF| Numerically orthorhombic:                                         YES
 CELL_REF| Periodicity                                                       XYZ

 *** WARNING in cryssym.F:180 :: Symmetry library SPGLIB not available ***


 *******************************************************************************
                                    Kpoints
 *******************************************************************************
 BRILLOUIN| K-point scheme                                        Monkhorst-Pack
 BRILLOUIN| K-Point grid                                             8    8    8
 BRILLOUIN| Accuracy in Symmetry determination                      0.100000E-05
 BRILLOUIN| K-Point point group symmetrization                               OFF
 BRILLOUIN| Wavefunction type                                            COMPLEX
 BRILLOUIN| List of Kpoints [2 Pi/Bohr]                                      256
 BRILLOUIN| Number           Weight            X              Y              Z
 BRILLOUIN|     1           0.00391       -0.43750       -0.43750       -0.43750
 BRILLOUIN|     2           0.00391       -0.43750       -0.43750       -0.31250
 BRILLOUIN|     3           0.00391       -0.43750       -0.43750       -0.18750
 BRILLOUIN|     4           0.00391       -0.43750       -0.43750       -0.06250
 BRILLOUIN|     5           0.00391       -0.43750       -0.43750        0.06250
 BRILLOUIN|     6           0.00391       -0.43750       -0.43750        0.18750
 BRILLOUIN|     7           0.00391       -0.43750       -0.43750        0.31250
 BRILLOUIN|     8           0.00391       -0.43750       -0.43750        0.43750
 BRILLOUIN|     9           0.00391       -0.43750       -0.31250       -0.43750
 BRILLOUIN|    10           0.00391       -0.43750       -0.31250       -0.31250
 BRILLOUIN|    11           0.00391       -0.43750       -0.31250       -0.18750
 BRILLOUIN|    12           0.00391       -0.43750       -0.31250       -0.06250
 BRILLOUIN|    13           0.00391       -0.43750       -0.31250        0.06250
 BRILLOUIN|    14           0.00391       -0.43750       -0.31250        0.18750
 BRILLOUIN|    15           0.00391       -0.43750       -0.31250        0.31250
 BRILLOUIN|    16           0.00391       -0.43750       -0.31250        0.43750
 BRILLOUIN|    17           0.00391       -0.43750       -0.18750       -0.43750
 BRILLOUIN|    18           0.00391       -0.43750       -0.18750       -0.31250
 BRILLOUIN|    19           0.00391       -0.43750       -0.18750       -0.18750
 BRILLOUIN|    20           0.00391       -0.43750       -0.18750       -0.06250
 BRILLOUIN|    21           0.00391       -0.43750       -0.18750        0.06250
 BRILLOUIN|    22           0.00391       -0.43750       -0.18750        0.18750
 BRILLOUIN|    23           0.00391       -0.43750       -0.18750        0.31250
 BRILLOUIN|    24           0.00391       -0.43750       -0.18750        0.43750
 BRILLOUIN|    25           0.00391       -0.43750       -0.06250       -0.43750
 BRILLOUIN|    26           0.00391       -0.43750       -0.06250       -0.31250
 BRILLOUIN|    27           0.00391       -0.43750       -0.06250       -0.18750
 BRILLOUIN|    28           0.00391       -0.43750       -0.06250       -0.06250
 BRILLOUIN|    29           0.00391       -0.43750       -0.06250        0.06250
 BRILLOUIN|    30           0.00391       -0.43750       -0.06250        0.18750
 BRILLOUIN|    31           0.00391       -0.43750       -0.06250        0.31250
 BRILLOUIN|    32           0.00391       -0.43750       -0.06250        0.43750
 BRILLOUIN|    33           0.00391       -0.43750        0.06250       -0.43750
 BRILLOUIN|    34           0.00391       -0.43750        0.06250       -0.31250
 BRILLOUIN|    35           0.00391       -0.43750        0.06250       -0.18750
 BRILLOUIN|    36           0.00391       -0.43750        0.06250       -0.06250
 BRILLOUIN|    37           0.00391       -0.43750        0.06250        0.06250
 BRILLOUIN|    38           0.00391       -0.43750        0.06250        0.18750
 BRILLOUIN|    39           0.00391       -0.43750        0.06250        0.31250
 BRILLOUIN|    40           0.00391       -0.43750        0.06250        0.43750
 BRILLOUIN|    41           0.00391       -0.43750        0.18750       -0.43750
 BRILLOUIN|    42           0.00391       -0.43750        0.18750       -0.31250
 BRILLOUIN|    43           0.00391       -0.43750        0.18750       -0.18750
 BRILLOUIN|    44           0.00391       -0.43750        0.18750       -0.06250
 BRILLOUIN|    45           0.00391       -0.43750        0.18750        0.06250
 BRILLOUIN|    46           0.00391       -0.43750        0.18750        0.18750
 BRILLOUIN|    47           0.00391       -0.43750        0.18750        0.31250
 BRILLOUIN|    48           0.00391       -0.43750        0.18750        0.43750
 BRILLOUIN|    49           0.00391       -0.43750        0.31250       -0.43750
 BRILLOUIN|    50           0.00391       -0.43750        0.31250       -0.31250
 BRILLOUIN|    51           0.00391       -0.43750        0.31250       -0.18750
 BRILLOUIN|    52           0.00391       -0.43750        0.31250       -0.06250
 BRILLOUIN|    53           0.00391       -0.43750        0.31250        0.06250
 BRILLOUIN|    54           0.00391       -0.43750        0.31250        0.18750
 BRILLOUIN|    55           0.00391       -0.43750        0.31250        0.31250
 BRILLOUIN|    56           0.00391       -0.43750        0.31250        0.43750
 BRILLOUIN|    57           0.00391       -0.43750        0.43750       -0.43750
 BRILLOUIN|    58           0.00391       -0.43750        0.43750       -0.31250
 BRILLOUIN|    59           0.00391       -0.43750        0.43750       -0.18750
 BRILLOUIN|    60           0.00391       -0.43750        0.43750       -0.06250
 BRILLOUIN|    61           0.00391       -0.43750        0.43750        0.06250
 BRILLOUIN|    62           0.00391       -0.43750        0.43750        0.18750
 BRILLOUIN|    63           0.00391       -0.43750        0.43750        0.31250
 BRILLOUIN|    64           0.00391       -0.43750        0.43750        0.43750
 BRILLOUIN|    65           0.00391       -0.31250       -0.43750       -0.43750
 BRILLOUIN|    66           0.00391       -0.31250       -0.43750       -0.31250
 BRILLOUIN|    67           0.00391       -0.31250       -0.43750       -0.18750
 BRILLOUIN|    68           0.00391       -0.31250       -0.43750       -0.06250
 BRILLOUIN|    69           0.00391       -0.31250       -0.43750        0.06250
 BRILLOUIN|    70           0.00391       -0.31250       -0.43750        0.18750
 BRILLOUIN|    71           0.00391       -0.31250       -0.43750        0.31250
 BRILLOUIN|    72           0.00391       -0.31250       -0.43750        0.43750
 BRILLOUIN|    73           0.00391       -0.31250       -0.31250       -0.43750
 BRILLOUIN|    74           0.00391       -0.31250       -0.31250       -0.31250
 BRILLOUIN|    75           0.00391       -0.31250       -0.31250       -0.18750
 BRILLOUIN|    76           0.00391       -0.31250       -0.31250       -0.06250
 BRILLOUIN|    77           0.00391       -0.31250       -0.31250        0.06250
 BRILLOUIN|    78           0.00391       -0.31250       -0.31250        0.18750
 BRILLOUIN|    79           0.00391       -0.31250       -0.31250        0.31250
 BRILLOUIN|    80           0.00391       -0.31250       -0.31250        0.43750
 BRILLOUIN|    81           0.00391       -0.31250       -0.18750       -0.43750
 BRILLOUIN|    82           0.00391       -0.31250       -0.18750       -0.31250
 BRILLOUIN|    83           0.00391       -0.31250       -0.18750       -0.18750
 BRILLOUIN|    84           0.00391       -0.31250       -0.18750       -0.06250
 BRILLOUIN|    85           0.00391       -0.31250       -0.18750        0.06250
 BRILLOUIN|    86           0.00391       -0.31250       -0.18750        0.18750
 BRILLOUIN|    87           0.00391       -0.31250       -0.18750        0.31250
 BRILLOUIN|    88           0.00391       -0.31250       -0.18750        0.43750
 BRILLOUIN|    89           0.00391       -0.31250       -0.06250       -0.43750
 BRILLOUIN|    90           0.00391       -0.31250       -0.06250       -0.31250
 BRILLOUIN|    91           0.00391       -0.31250       -0.06250       -0.18750
 BRILLOUIN|    92           0.00391       -0.31250       -0.06250       -0.06250
 BRILLOUIN|    93           0.00391       -0.31250       -0.06250        0.06250
 BRILLOUIN|    94           0.00391       -0.31250       -0.06250        0.18750
 BRILLOUIN|    95           0.00391       -0.31250       -0.06250        0.31250
 BRILLOUIN|    96           0.00391       -0.31250       -0.06250        0.43750
 BRILLOUIN|    97           0.00391       -0.31250        0.06250       -0.43750
 BRILLOUIN|    98           0.00391       -0.31250        0.06250       -0.31250
 BRILLOUIN|    99           0.00391       -0.31250        0.06250       -0.18750
 BRILLOUIN|   100           0.00391       -0.31250        0.06250       -0.06250
 BRILLOUIN|   101           0.00391       -0.31250        0.06250        0.06250
 BRILLOUIN|   102           0.00391       -0.31250        0.06250        0.18750
 BRILLOUIN|   103           0.00391       -0.31250        0.06250        0.31250
 BRILLOUIN|   104           0.00391       -0.31250        0.06250        0.43750
 BRILLOUIN|   105           0.00391       -0.31250        0.18750       -0.43750
 BRILLOUIN|   106           0.00391       -0.31250        0.18750       -0.31250
 BRILLOUIN|   107           0.00391       -0.31250        0.18750       -0.18750
 BRILLOUIN|   108           0.00391       -0.31250        0.18750       -0.06250
 BRILLOUIN|   109           0.00391       -0.31250        0.18750        0.06250
 BRILLOUIN|   110           0.00391       -0.31250        0.18750        0.18750
 BRILLOUIN|   111           0.00391       -0.31250        0.18750        0.31250
 BRILLOUIN|   112           0.00391       -0.31250        0.18750        0.43750
 BRILLOUIN|   113           0.00391       -0.31250        0.31250       -0.43750
 BRILLOUIN|   114           0.00391       -0.31250        0.31250       -0.31250
 BRILLOUIN|   115           0.00391       -0.31250        0.31250       -0.18750
 BRILLOUIN|   116           0.00391       -0.31250        0.31250       -0.06250
 BRILLOUIN|   117           0.00391       -0.31250        0.31250        0.06250
 BRILLOUIN|   118           0.00391       -0.31250        0.31250        0.18750
 BRILLOUIN|   119           0.00391       -0.31250        0.31250        0.31250
 BRILLOUIN|   120           0.00391       -0.31250        0.31250        0.43750
 BRILLOUIN|   121           0.00391       -0.31250        0.43750       -0.43750
 BRILLOUIN|   122           0.00391       -0.31250        0.43750       -0.31250
 BRILLOUIN|   123           0.00391       -0.31250        0.43750       -0.18750
 BRILLOUIN|   124           0.00391       -0.31250        0.43750       -0.06250
 BRILLOUIN|   125           0.00391       -0.31250        0.43750        0.06250
 BRILLOUIN|   126           0.00391       -0.31250        0.43750        0.18750
 BRILLOUIN|   127           0.00391       -0.31250        0.43750        0.31250
 BRILLOUIN|   128           0.00391       -0.31250        0.43750        0.43750
 BRILLOUIN|   129           0.00391       -0.18750       -0.43750       -0.43750
 BRILLOUIN|   130           0.00391       -0.18750       -0.43750       -0.31250
 BRILLOUIN|   131           0.00391       -0.18750       -0.43750       -0.18750
 BRILLOUIN|   132           0.00391       -0.18750       -0.43750       -0.06250
 BRILLOUIN|   133           0.00391       -0.18750       -0.43750        0.06250
 BRILLOUIN|   134           0.00391       -0.18750       -0.43750        0.18750
 BRILLOUIN|   135           0.00391       -0.18750       -0.43750        0.31250
 BRILLOUIN|   136           0.00391       -0.18750       -0.43750        0.43750
 BRILLOUIN|   137           0.00391       -0.18750       -0.31250       -0.43750
 BRILLOUIN|   138           0.00391       -0.18750       -0.31250       -0.31250
 BRILLOUIN|   139           0.00391       -0.18750       -0.31250       -0.18750
 BRILLOUIN|   140           0.00391       -0.18750       -0.31250       -0.06250
 BRILLOUIN|   141           0.00391       -0.18750       -0.31250        0.06250
 BRILLOUIN|   142           0.00391       -0.18750       -0.31250        0.18750
 BRILLOUIN|   143           0.00391       -0.18750       -0.31250        0.31250
 BRILLOUIN|   144           0.00391       -0.18750       -0.31250        0.43750
 BRILLOUIN|   145           0.00391       -0.18750       -0.18750       -0.43750
 BRILLOUIN|   146           0.00391       -0.18750       -0.18750       -0.31250
 BRILLOUIN|   147           0.00391       -0.18750       -0.18750       -0.18750
 BRILLOUIN|   148           0.00391       -0.18750       -0.18750       -0.06250
 BRILLOUIN|   149           0.00391       -0.18750       -0.18750        0.06250
 BRILLOUIN|   150           0.00391       -0.18750       -0.18750        0.18750
 BRILLOUIN|   151           0.00391       -0.18750       -0.18750        0.31250
 BRILLOUIN|   152           0.00391       -0.18750       -0.18750        0.43750
 BRILLOUIN|   153           0.00391       -0.18750       -0.06250       -0.43750
 BRILLOUIN|   154           0.00391       -0.18750       -0.06250       -0.31250
 BRILLOUIN|   155           0.00391       -0.18750       -0.06250       -0.18750
 BRILLOUIN|   156           0.00391       -0.18750       -0.06250       -0.06250
 BRILLOUIN|   157           0.00391       -0.18750       -0.06250        0.06250
 BRILLOUIN|   158           0.00391       -0.18750       -0.06250        0.18750
 BRILLOUIN|   159           0.00391       -0.18750       -0.06250        0.31250
 BRILLOUIN|   160           0.00391       -0.18750       -0.06250        0.43750
 BRILLOUIN|   161           0.00391       -0.18750        0.06250       -0.43750
 BRILLOUIN|   162           0.00391       -0.18750        0.06250       -0.31250
 BRILLOUIN|   163           0.00391       -0.18750        0.06250       -0.18750
 BRILLOUIN|   164           0.00391       -0.18750        0.06250       -0.06250
 BRILLOUIN|   165           0.00391       -0.18750        0.06250        0.06250
 BRILLOUIN|   166           0.00391       -0.18750        0.06250        0.18750
 BRILLOUIN|   167           0.00391       -0.18750        0.06250        0.31250
 BRILLOUIN|   168           0.00391       -0.18750        0.06250        0.43750
 BRILLOUIN|   169           0.00391       -0.18750        0.18750       -0.43750
 BRILLOUIN|   170           0.00391       -0.18750        0.18750       -0.31250
 BRILLOUIN|   171           0.00391       -0.18750        0.18750       -0.18750
 BRILLOUIN|   172           0.00391       -0.18750        0.18750       -0.06250
 BRILLOUIN|   173           0.00391       -0.18750        0.18750        0.06250
 BRILLOUIN|   174           0.00391       -0.18750        0.18750        0.18750
 BRILLOUIN|   175           0.00391       -0.18750        0.18750        0.31250
 BRILLOUIN|   176           0.00391       -0.18750        0.18750        0.43750
 BRILLOUIN|   177           0.00391       -0.18750        0.31250       -0.43750
 BRILLOUIN|   178           0.00391       -0.18750        0.31250       -0.31250
 BRILLOUIN|   179           0.00391       -0.18750        0.31250       -0.18750
 BRILLOUIN|   180           0.00391       -0.18750        0.31250       -0.06250
 BRILLOUIN|   181           0.00391       -0.18750        0.31250        0.06250
 BRILLOUIN|   182           0.00391       -0.18750        0.31250        0.18750
 BRILLOUIN|   183           0.00391       -0.18750        0.31250        0.31250
 BRILLOUIN|   184           0.00391       -0.18750        0.31250        0.43750
 BRILLOUIN|   185           0.00391       -0.18750        0.43750       -0.43750
 BRILLOUIN|   186           0.00391       -0.18750        0.43750       -0.31250
 BRILLOUIN|   187           0.00391       -0.18750        0.43750       -0.18750
 BRILLOUIN|   188           0.00391       -0.18750        0.43750       -0.06250
 BRILLOUIN|   189           0.00391       -0.18750        0.43750        0.06250
 BRILLOUIN|   190           0.00391       -0.18750        0.43750        0.18750
 BRILLOUIN|   191           0.00391       -0.18750        0.43750        0.31250
 BRILLOUIN|   192           0.00391       -0.18750        0.43750        0.43750
 BRILLOUIN|   193           0.00391       -0.06250       -0.43750       -0.43750
 BRILLOUIN|   194           0.00391       -0.06250       -0.43750       -0.31250
 BRILLOUIN|   195           0.00391       -0.06250       -0.43750       -0.18750
 BRILLOUIN|   196           0.00391       -0.06250       -0.43750       -0.06250
 BRILLOUIN|   197           0.00391       -0.06250       -0.43750        0.06250
 BRILLOUIN|   198           0.00391       -0.06250       -0.43750        0.18750
 BRILLOUIN|   199           0.00391       -0.06250       -0.43750        0.31250
 BRILLOUIN|   200           0.00391       -0.06250       -0.43750        0.43750
 BRILLOUIN|   201           0.00391       -0.06250       -0.31250       -0.43750
 BRILLOUIN|   202           0.00391       -0.06250       -0.31250       -0.31250
 BRILLOUIN|   203           0.00391       -0.06250       -0.31250       -0.18750
 BRILLOUIN|   204           0.00391       -0.06250       -0.31250       -0.06250
 BRILLOUIN|   205           0.00391       -0.06250       -0.31250        0.06250
 BRILLOUIN|   206           0.00391       -0.06250       -0.31250        0.18750
 BRILLOUIN|   207           0.00391       -0.06250       -0.31250        0.31250
 BRILLOUIN|   208           0.00391       -0.06250       -0.31250        0.43750
 BRILLOUIN|   209           0.00391       -0.06250       -0.18750       -0.43750
 BRILLOUIN|   210           0.00391       -0.06250       -0.18750       -0.31250
 BRILLOUIN|   211           0.00391       -0.06250       -0.18750       -0.18750
 BRILLOUIN|   212           0.00391       -0.06250       -0.18750       -0.06250
 BRILLOUIN|   213           0.00391       -0.06250       -0.18750        0.06250
 BRILLOUIN|   214           0.00391       -0.06250       -0.18750        0.18750
 BRILLOUIN|   215           0.00391       -0.06250       -0.18750        0.31250
 BRILLOUIN|   216           0.00391       -0.06250       -0.18750        0.43750
 BRILLOUIN|   217           0.00391       -0.06250       -0.06250       -0.43750
 BRILLOUIN|   218           0.00391       -0.06250       -0.06250       -0.31250
 BRILLOUIN|   219           0.00391       -0.06250       -0.06250       -0.18750
 BRILLOUIN|   220           0.00391       -0.06250       -0.06250       -0.06250
 BRILLOUIN|   221           0.00391       -0.06250       -0.06250        0.06250
 BRILLOUIN|   222           0.00391       -0.06250       -0.06250        0.18750
 BRILLOUIN|   223           0.00391       -0.06250       -0.06250        0.31250
 BRILLOUIN|   224           0.00391       -0.06250       -0.06250        0.43750
 BRILLOUIN|   225           0.00391       -0.06250        0.06250       -0.43750
 BRILLOUIN|   226           0.00391       -0.06250        0.06250       -0.31250
 BRILLOUIN|   227           0.00391       -0.06250        0.06250       -0.18750
 BRILLOUIN|   228           0.00391       -0.06250        0.06250       -0.06250
 BRILLOUIN|   229           0.00391       -0.06250        0.06250        0.06250
 BRILLOUIN|   230           0.00391       -0.06250        0.06250        0.18750
 BRILLOUIN|   231           0.00391       -0.06250        0.06250        0.31250
 BRILLOUIN|   232           0.00391       -0.06250        0.06250        0.43750
 BRILLOUIN|   233           0.00391       -0.06250        0.18750       -0.43750
 BRILLOUIN|   234           0.00391       -0.06250        0.18750       -0.31250
 BRILLOUIN|   235           0.00391       -0.06250        0.18750       -0.18750
 BRILLOUIN|   236           0.00391       -0.06250        0.18750       -0.06250
 BRILLOUIN|   237           0.00391       -0.06250        0.18750        0.06250
 BRILLOUIN|   238           0.00391       -0.06250        0.18750        0.18750
 BRILLOUIN|   239           0.00391       -0.06250        0.18750        0.31250
 BRILLOUIN|   240           0.00391       -0.06250        0.18750        0.43750
 BRILLOUIN|   241           0.00391       -0.06250        0.31250       -0.43750
 BRILLOUIN|   242           0.00391       -0.06250        0.31250       -0.31250
 BRILLOUIN|   243           0.00391       -0.06250        0.31250       -0.18750
 BRILLOUIN|   244           0.00391       -0.06250        0.31250       -0.06250
 BRILLOUIN|   245           0.00391       -0.06250        0.31250        0.06250
 BRILLOUIN|   246           0.00391       -0.06250        0.31250        0.18750
 BRILLOUIN|   247           0.00391       -0.06250        0.31250        0.31250
 BRILLOUIN|   248           0.00391       -0.06250        0.31250        0.43750
 BRILLOUIN|   249           0.00391       -0.06250        0.43750       -0.43750
 BRILLOUIN|   250           0.00391       -0.06250        0.43750       -0.31250
 BRILLOUIN|   251           0.00391       -0.06250        0.43750       -0.18750
 BRILLOUIN|   252           0.00391       -0.06250        0.43750       -0.06250
 BRILLOUIN|   253           0.00391       -0.06250        0.43750        0.06250
 BRILLOUIN|   254           0.00391       -0.06250        0.43750        0.18750
 BRILLOUIN|   255           0.00391       -0.06250        0.43750        0.31250
 BRILLOUIN|   256           0.00391       -0.06250        0.43750        0.43750
 *******************************************************************************

 *******************************************************************************
 *******************************************************************************
 **                                                                           **
 **     #####                         ##              ##                      **
 **    ##   ##            ##          ##              ##                      **
 **   ##     ##                       ##            ######                    **
 **   ##     ##  ##   ##  ##   #####  ##  ##   ####   ##    #####    #####    **
 **   ##     ##  ##   ##  ##  ##      ## ##   ##      ##   ##   ##  ##   ##   **
 **   ##  ## ##  ##   ##  ##  ##      ####     ###    ##   ######   ######    **
 **    ##  ###   ##   ##  ##  ##      ## ##      ##   ##   ##       ##        **
 **     #######   #####   ##   #####  ##  ##  ####    ##    #####   ##        **
 **           ##                                                    ##        **
 **                                                                           **
 **                                                ... make the atoms dance   **
 **                                                                           **
 **            Copyright (C) by CP2K developers group (2000-2025)             **
 **                      J. Chem. Phys. 152, 194103 (2020)                    **
 **                                                                           **
 *******************************************************************************

 DFT| Spin restricted Kohn-Sham (RKS) calculation                            RKS
 DFT| Multiplicity                                                             1
 DFT| Number of spin states                                                    1
 DFT| Charge                                                                   0
 DFT| Self-interaction correction (SIC)                                       NO
 DFT| Cutoffs: density                                              1.000000E-10
 DFT|          gradient                                             1.000000E-10
 DFT|          tau                                                  1.000000E-10
 DFT|          cutoff_smoothing_range                               0.000000E+00
 DFT| XC density smoothing                                                  NONE
 DFT| XC derivatives                                                          PW

 FUNCTIONAL| PBE:
 FUNCTIONAL| J.P.Perdew, K.Burke, M.Ernzerhof, Phys. Rev. Letter, vol. 77, n 18,
 FUNCTIONAL|  pp. 3865-3868, (1996) {spin unpolarized}                          


 QS| Method:                                                                 GPW
 QS| Density plane wave grid type                        NON-SPHERICAL FULLSPACE
 QS| Number of grid levels:                                                    4
 QS| Density cutoff [a.u.]:                                                500.0
 QS| Multi grid cutoff [a.u.]: 1) grid level                               500.0
 QS|                           2) grid level                               166.7
 QS|                           3) grid level                                55.6
 QS|                           4) grid level                                18.5
 QS| Grid level progression factor:                                          3.0
 QS| Relative density cutoff [a.u.]:                                        50.0
 QS| Interaction thresholds: eps_pgf_orb:                                1.0E-16
 QS|                         eps_filter_matrix:                          0.0E+00
 QS|                         eps_core_charge:                            1.0E-18
 QS|                         eps_rho_gspace:                             1.0E-16
 QS|                         eps_rho_rspace:                             1.0E-16
 QS|                         eps_gvg_rspace:                             1.0E-08
 QS|                         eps_ppl:                                    1.0E-02
 QS|                         eps_ppnl:                                   1.0E-10


 ATOMIC KIND INFORMATION

  1. Atomic kind: Hg                                    Number of atoms:       2

     Orbital Basis Set                                 aug-SZV-MOLOPT-GTH-tier-1

       Number of orbital shell sets:                                           1
       Number of orbital shells:                                               6
       Number of primitive Cartesian functions:                                7
       Number of Cartesian basis functions:                                   20
       Number of spherical basis functions:                                   18
       Norm type:                                                              2

       Normalised Cartesian orbitals:

                        Set   Shell   Orbital            Exponent    Coefficient

                          1       1    2s                0.078430      -0.058496
                                                         0.124587       0.000000
                                                         0.197908      -0.150033
                                                         0.443216       0.018564
                                                         0.968505       0.376322
                                                         1.999950      -0.176917
                                                         3.031517      -0.001465

                          1       2    3s                0.078430       0.011660
                                                         0.124587       0.132122
                                                         0.197908       0.002111
                                                         0.443216      -0.000488
                                                         0.968505       0.001195
                                                         1.999950       0.000000
                                                         3.031517       0.000000

                          1       3    3px               0.078430       0.034902
                                                         0.124587       0.000000
                                                         0.197908       0.099761
                                                         0.443216       0.006256
                                                         0.968505      -0.348836
                                                         1.999950       0.359089
                                                         3.031517      -0.188524
                          1       3    3py               0.078430       0.034902
                                                         0.124587       0.000000
                                                         0.197908       0.099761
                                                         0.443216       0.006256
                                                         0.968505      -0.348836
                                                         1.999950       0.359089
                                                         3.031517      -0.188524
                          1       3    3pz               0.078430       0.034902
                                                         0.124587       0.000000
                                                         0.197908       0.099761
                                                         0.443216       0.006256
                                                         0.968505      -0.348836
                                                         1.999950       0.359089
                                                         3.031517      -0.188524

                          1       4    4px               0.078430      -0.002088
                                                         0.124587       0.009380
                                                         0.197908       0.064085
                                                         0.443216       0.377661
                                                         0.968505      -0.150135
                                                         1.999950       0.000000
                                                         3.031517       0.000000
                          1       4    4py               0.078430      -0.002088
                                                         0.124587       0.009380
                                                         0.197908       0.064085
                                                         0.443216       0.377661
                                                         0.968505      -0.150135
                                                         1.999950       0.000000
                                                         3.031517       0.000000
                          1       4    4pz               0.078430      -0.002088
                                                         0.124587       0.009380
                                                         0.197908       0.064085
                                                         0.443216       0.377661
                                                         0.968505      -0.150135
                                                         1.999950       0.000000
                                                         3.031517       0.000000

                          1       5    4dx2              0.078430       0.000383
                                                         0.124587       0.000000
                                                         0.197908       0.015833
                                                         0.443216       0.133361
                                                         0.968505       0.658335
                                                         1.999950       1.669819
                                                         3.031517      -0.724890
                          1       5    4dxy              0.078430       0.000664
                                                         0.124587       0.000000
                                                         0.197908       0.027424
                                                         0.443216       0.230988
                                                         0.968505       1.140270
                                                         1.999950       2.892211
                                                         3.031517      -1.255545
                          1       5    4dxz              0.078430       0.000664
                                                         0.124587       0.000000
                                                         0.197908       0.027424
                                                         0.443216       0.230988
                                                         0.968505       1.140270
                                                         1.999950       2.892211
                                                         3.031517      -1.255545
                          1       5    4dy2              0.078430       0.000383
                                                         0.124587       0.000000
                                                         0.197908       0.015833
                                                         0.443216       0.133361
                                                         0.968505       0.658335
                                                         1.999950       1.669819
                                                         3.031517      -0.724890
                          1       5    4dyz              0.078430       0.000664
                                                         0.124587       0.000000
                                                         0.197908       0.027424
                                                         0.443216       0.230988
                                                         0.968505       1.140270
                                                         1.999950       2.892211
                                                         3.031517      -1.255545
                          1       5    4dz2              0.078430       0.000383
                                                         0.124587       0.000000
                                                         0.197908       0.015833
                                                         0.443216       0.133361
                                                         0.968505       0.658335
                                                         1.999950       1.669819
                                                         3.031517      -0.724890

                          1       6    5dx2              0.078430       0.031920
                                                         0.124587      -0.034191
                                                         0.197908       0.000135
                                                         0.443216      -0.000932
                                                         0.968505       0.038754
                                                         1.999950       0.000000
                                                         3.031517       0.000000
                          1       6    5dxy              0.078430       0.055287
                                                         0.124587      -0.059221
                                                         0.197908       0.000234
                                                         0.443216      -0.001613
                                                         0.968505       0.067124
                                                         1.999950       0.000000
                                                         3.031517       0.000000
                          1       6    5dxz              0.078430       0.055287
                                                         0.124587      -0.059221
                                                         0.197908       0.000234
                                                         0.443216      -0.001613
                                                         0.968505       0.067124
                                                         1.999950       0.000000
                                                         3.031517       0.000000
                          1       6    5dy2              0.078430       0.031920
                                                         0.124587      -0.034191
                                                         0.197908       0.000135
                                                         0.443216      -0.000932
                                                         0.968505       0.038754
                                                         1.999950       0.000000
                                                         3.031517       0.000000
                          1       6    5dyz              0.078430       0.055287
                                                         0.124587      -0.059221
                                                         0.197908       0.000234
                                                         0.443216      -0.001613
                                                         0.968505       0.067124
                                                         1.999950       0.000000
                                                         3.031517       0.000000
                          1       6    5dz2              0.078430       0.031920
                                                         0.124587      -0.034191
                                                         0.197908       0.000135
                                                         0.443216      -0.000932
                                                         0.968505       0.038754
                                                         1.999950       0.000000
                                                         3.031517       0.000000

       Atomic covalent radius [Angstrom]:                                  1.490

       Atomic van der Waals radius [Angstrom]:                             1.550

     GTH Potential information for                                       GTH-PBE

       Description:                       Goedecker-Teter-Hutter pseudopotential
                                           Goedecker et al., PRB 54, 1703 (1996)
                                          Hartwigsen et al., PRB 58, 3641 (1998)
                                                      Krack, TCA 114, 145 (2005)

       Gaussian exponent of the core charge distribution:               1.538935
       Electronic configuration (s p d ...):                           2   0  10

       Parameters of the local part of the GTH pseudopotential:

                          rloc        C1          C2          C3          C4
                        0.570000    8.467847

       Parameters of the non-local part of the GTH (SOC) pseudopotential:

                   l      r(l)      h(i,j,l)
                                    k(i,j,l)
                   0    0.529787    7.371243   -2.969944
                                   -2.969944    3.834181
                   1    0.635166    3.551161   -1.722909    0.000000
                                   -1.722909    2.038574    0.000000
                                    0.000000    0.000000    0.000000
                                    0.976278   -1.294310    0.554904
                                   -1.294310    2.455279   -1.313143
                                    0.554904   -1.313143    0.933258
                   2    0.407985   -8.613980    5.007561
                                    5.007561   -5.678041
                                   -0.097944    0.262020
                                    0.262020   -0.297103


 MOLECULE KIND INFORMATION


 All atoms are their own molecule, skipping detailed information


 TOTAL NUMBERS AND MAXIMUM NUMBERS

  Total number of            - Atomic kinds:                                   1
                             - Atoms:                                          2
                             - Shell sets:                                     2
                             - Shells:                                        12
                             - Primitive Cartesian functions:                 14
                             - Cartesian basis functions:                     40
                             - Spherical basis functions:                     36

  Maximum angular momentum of- Orbital basis functions:                        2
                             - Local part of the GTH pseudopotential:          0
                             - Non-local part of the GTH pseudopotential:      5


 MODULE QUICKSTEP: ATOMIC COORDINATES IN ANGSTROM

   Atom Kind Element         X             Y             Z       Z(eff)     Mass
      1    1 Hg   80      0.000000      0.000000      0.000000  12.0000 200.5900
      2    1 Hg   80      2.051525      2.051525      1.774155  12.0000 200.5900



 SCF PARAMETERS         Density guess:                                    ATOMIC
                        --------------------------------------------------------
                        max_scf:                                             500
                        max_scf_history:                                       0
                        max_diis:                                              4
                        --------------------------------------------------------
                        eps_scf:                                        1.00E-09
                        eps_scf_history:                                0.00E+00
                        eps_diis:                                       1.00E-01
                        eps_eigval:                                     1.00E-05
                        --------------------------------------------------------
                        level_shift [a.u.]:                             0.000000
                        added MOs                                        24    0
                        --------------------------------------------------------
                        Mixing method:                            BROYDEN_MIXING
                                                charge density mixing in g-space
                        --------------------------------------------------------
                        Smear method:                                FERMI_DIRAC
                        Electronic temperature [K]:                        300.0
                        Electronic temperature [a.u.]:                  9.50E-04
                        Accuracy threshold:                             1.00E-10
                        --------------------------------------------------------
                        No outer SCF

 PW_GRID| Information for grid number                                          1
 PW_GRID| Grid distributed over                                     8 processors
 PW_GRID| Real space group dimensions                                     8    1
 PW_GRID| the grid is blocked:                                                NO
 PW_GRID| Cutoff [a.u.]                                                    500.0
 PW_GRID| spherical cutoff:                                                   NO
 PW_GRID|   Bounds   1            -40      39                Points:          80
 PW_GRID|   Bounds   2            -40      39                Points:          80
 PW_GRID|   Bounds   3            -36      35                Points:          72
 PW_GRID| Volume element (a.u.^3)  0.8748E-03     Volume (a.u.^3)       403.1176
 PW_GRID| Grid span                                                    FULLSPACE
 PW_GRID|   Distribution                         Average         Max         Min
 PW_GRID|   G-Vectors                            57600.0       57600       57600
 PW_GRID|   G-Rays                                 720.0         720         720
 PW_GRID|   Real Space Points                    57600.0       57600       57600

 PW_GRID| Information for grid number                                          2
 PW_GRID| Number of the reference grid                                         1
 PW_GRID| Grid distributed over                                     8 processors
 PW_GRID| Real space group dimensions                                     8    1
 PW_GRID| the grid is blocked:                                                NO
 PW_GRID| Cutoff [a.u.]                                                    166.7
 PW_GRID| spherical cutoff:                                                   NO
 PW_GRID|   Bounds   1            -22      22                Points:          45
 PW_GRID|   Bounds   2            -22      22                Points:          45
 PW_GRID|   Bounds   3            -20      19                Points:          40
 PW_GRID| Volume element (a.u.^3)  0.4977E-02     Volume (a.u.^3)       403.1176
 PW_GRID| Grid span                                                    FULLSPACE
 PW_GRID|   Distribution                         Average         Max         Min
 PW_GRID|   G-Vectors                            10125.0       10305        9990
 PW_GRID|   G-Rays                                 225.0         229         222
 PW_GRID|   Real Space Points                    10125.0       10800        9000

 PW_GRID| Information for grid number                                          3
 PW_GRID| Number of the reference grid                                         1
 PW_GRID| Grid distributed over                                     8 processors
 PW_GRID| Real space group dimensions                                     8    1
 PW_GRID| the grid is blocked:                                                NO
 PW_GRID| Cutoff [a.u.]                                                     55.6
 PW_GRID| spherical cutoff:                                                   NO
 PW_GRID|   Bounds   1            -13      13                Points:          27
 PW_GRID|   Bounds   2            -13      13                Points:          27
 PW_GRID|   Bounds   3            -12      11                Points:          24
 PW_GRID| Volume element (a.u.^3)  0.2304E-01     Volume (a.u.^3)       403.1176
 PW_GRID| Grid span                                                    FULLSPACE
 PW_GRID|   Distribution                         Average         Max         Min
 PW_GRID|   G-Vectors                             2187.0        2295        2106
 PW_GRID|   G-Rays                                  81.0          85          78
 PW_GRID|   Real Space Points                     2187.0        2592        1944

 PW_GRID| Information for grid number                                          4
 PW_GRID| Number of the reference grid                                         1
 PW_GRID| Grid distributed over                                     8 processors
 PW_GRID| Real space group dimensions                                     8    1
 PW_GRID| the grid is blocked:                                                NO
 PW_GRID| Cutoff [a.u.]                                                     18.5
 PW_GRID| spherical cutoff:                                                   NO
 PW_GRID|   Bounds   1             -7       7                Points:          15
 PW_GRID|   Bounds   2             -7       7                Points:          15
 PW_GRID|   Bounds   3             -7       7                Points:          15
 PW_GRID| Volume element (a.u.^3)  0.1194         Volume (a.u.^3)       403.1176
 PW_GRID| Grid span                                                    FULLSPACE
 PW_GRID|   Distribution                         Average         Max         Min
 PW_GRID|   G-Vectors                              421.9         435         405
 PW_GRID|   G-Rays                                  28.1          29          27
 PW_GRID|   Real Space Points                      421.9         450         225

 POISSON| Solver                                                        PERIODIC
 POISSON| Periodicity                                                        XYZ

 RS_GRID| Information for grid number                                          1
 RS_GRID|   Bounds   1            -40      39                Points:          80
 RS_GRID|   Bounds   2            -40      39                Points:          80
 RS_GRID|   Bounds   3            -36      35                Points:          72
 RS_GRID| Real space fully replicated
 RS_GRID| Group size                                                           1

 RS_GRID| Information for grid number                                          2
 RS_GRID|   Bounds   1            -22      22                Points:          45
 RS_GRID|   Bounds   2            -22      22                Points:          45
 RS_GRID|   Bounds   3            -20      19                Points:          40
 RS_GRID| Real space fully replicated
 RS_GRID| Group size                                                           1

 RS_GRID| Information for grid number                                          3
 RS_GRID|   Bounds   1            -13      13                Points:          27
 RS_GRID|   Bounds   2            -13      13                Points:          27
 RS_GRID|   Bounds   3            -12      11                Points:          24
 RS_GRID| Real space fully replicated
 RS_GRID| Group size                                                           1

 RS_GRID| Information for grid number                                          4
 RS_GRID|   Bounds   1             -7       7                Points:          15
 RS_GRID|   Bounds   2             -7       7                Points:          15
 RS_GRID|   Bounds   3             -7       7                Points:          15
 RS_GRID| Real space fully replicated
 RS_GRID| Group size                                                           1

 Number of electrons:                                                         24
 Number of occupied orbitals:                                                 12
 Number of molecular orbitals:                                                36

 Number of orbital functions:                                                 36
 Number of independent orbital functions:                                     36

 Extrapolation method: initial_guess

 Atomic guess: The first density matrix is obtained in terms of atomic orbitals
               and electronic configurations assigned to each atomic kind

 Guess for atomic kind: Hg

 Electronic structure
    Total number of core electrons                                         68.00
    Total number of valence electrons                                      12.00
    Total number of electrons                                              80.00
    Multiplicity                                                   not specified
    S   [  2.00  2.00  2.00  2.00  2.00] 2.00
    P   [  6.00  6.00  6.00  6.00]
    D   [ 10.00 10.00]10.00
    F   [ 14.00]


 *******************************************************************************
                  Iteration          Convergence                     Energy [au]
 *******************************************************************************
                          1        0.165527                     -40.870851705293
                          2        0.284269E-01                 -40.875085083837
                          3        0.213932E-03                 -40.875218783838
                          4        0.187913E-05                 -40.875218791241
                          5        0.919646E-06                 -40.875218791241

 Energy components [Hartree]           Total Energy ::          -40.875218791241
                                        Band Energy ::           -3.522359147223
                                     Kinetic Energy ::           28.001286568814
                                   Potential Energy ::          -68.876505360055
                                      Virial (-V/T) ::            2.459762168099
                                        Core Energy ::          -74.201700348219
                                          XC Energy ::           -5.836816342934
                                     Coulomb Energy ::           39.163297899912
                       Total Pseudopotential Energy ::         -102.325573008248
                       Local Pseudopotential Energy ::          -86.548293410386
                    Nonlocal Pseudopotential Energy ::          -15.777279597862
                                        Confinement ::            1.225860912148

 Orbital energies  State     L     Occupation   Energy[a.u.]          Energy[eV]

                       1     0          2.000      -0.212787           -5.790231

                       1     2         10.000      -0.309678           -8.426780


 Total Electron Density at R=0:                                         0.000001
 Re-scaling the density matrix to get the right number of electrons
                  # Electrons              Trace(P)               Scaling factor
                           24                24.000                        1.000


 SCF WAVEFUNCTION OPTIMIZATION

  Step     Update method      Time    Convergence         Total energy    Change
  ------------------------------------------------------------------------------
     1 NoMix/Diag. 0.10E+00    3.4     0.42663113       -82.3262260707 -8.23E+01
     2 Broy./Diag. 0.10E+00    3.5     0.00370643       -83.0446780557 -7.18E-01
     3 Broy./Diag. 0.10E+00    3.5     0.05257428       -82.5628833520  4.82E-01
     4 Broy./Diag. 0.10E+00    3.5     0.00175811       -82.2232362926  3.40E-01
     5 Broy./Diag. 0.10E+00    3.5     0.00747478       -82.2263598718 -3.12E-03
     6 Broy./Diag. 0.10E+00    3.5     0.00035403       -82.2391179807 -1.28E-02
     7 Broy./Diag. 0.10E+00    3.5     0.00129021       -82.2496514153 -1.05E-02
     8 Broy./Diag. 0.10E+00    3.5     0.00004987       -82.2508650136 -1.21E-03
     9 Broy./Diag. 0.10E+00    3.5     0.00030401       -82.2493199988  1.55E-03
    10 Broy./Diag. 0.10E+00    3.5     0.00001357       -82.2489491232  3.71E-04
    11 Broy./Diag. 0.10E+00    3.5     0.00002784       -82.2487690334  1.80E-04
    12 Broy./Diag. 0.10E+00    3.5     0.00000099       -82.2487268175  4.22E-05
    13 Broy./Diag. 0.10E+00    3.5     0.00000596       -82.2488210083 -9.42E-05
    14 Broy./Diag. 0.10E+00    3.5     0.00000008       -82.2488361334 -1.51E-05
    15 Broy./Diag. 0.10E+00    3.5     0.00000114       -82.2488380580 -1.92E-06
    16 Broy./Diag. 0.10E+00    3.5     0.00000002       -82.2488376408  4.17E-07
    17 Broy./Diag. 0.10E+00    3.5     0.00000011       -82.2488365298  1.11E-06
    18 Broy./Diag. 0.10E+00    3.5     0.00000005       -82.2488358855  6.44E-07
    19 Broy./Diag. 0.10E+00    3.5     0.00000001       -82.2488357608  1.25E-07
    20 Broy./Diag. 0.10E+00    3.5     0.00000004       -82.2488359474 -1.87E-07
    21 Broy./Diag. 0.10E+00    3.5     2.3734E-09       -82.2488360200 -7.26E-08
    22 Broy./Diag. 0.10E+00    3.5     7.1121E-09       -82.2488360372 -1.71E-08
    23 Broy./Diag. 0.10E+00    3.5     2.0335E-09       -82.2488360325  4.67E-09
    24 Broy./Diag. 0.10E+00    3.5     2.2391E-09       -82.2488360065  2.60E-08
    25 Broy./Diag. 0.10E+00    3.5     4.8407E-10       -82.2488359962  1.04E-08

  *** SCF run converged in    25 steps ***


  Electronic density on regular grids:        -24.0000000000       -0.0000000000
  Core density on regular grids:               24.0000000000        0.0000000000
  Total charge density on r-space grids:       -0.0000000000
  Total charge density g-space grids:          -0.0000000000

  Overlap energy of the core charge distribution:               0.00000000000028
  Self energy of the core charge distribution:               -142.53210531732793
  Core Hamiltonian energy:                                     43.80812989834943
  Hartree energy:                                              28.34051729717944
  Exchange-correlation energy:                                -11.86533569437116
  Electronic entropic energy:                                  -0.00004217998330
  Fermi energy:                                                 0.18150142453026

  Total energy:                                               -82.24883599615329

 !-----------------------------------------------------------------------------!
                     Mulliken Population Analysis

 #  Atom  Element  Kind  Atomic population                           Net charge
       1     Hg       1         12.000000                              0.000000
       2     Hg       1         12.000000                             -0.000000
 # Total charge                             24.000000                  0.000000

 !-----------------------------------------------------------------------------!

 !-----------------------------------------------------------------------------!
                           Hirshfeld Charges

  #Atom  Element  Kind  Ref Charge     Population                    Net charge
      1       Hg     1      12.000         12.000                        -0.000
      2       Hg     1      12.000         12.000                         0.000

  Total Charge                                                            0.000
 !-----------------------------------------------------------------------------!
  
 -------------------------------------------------------------------------------
 -                                                                             -
 -                          BANDSTRUCTURE CALCULATION                          -
 -                                                                             -
 -------------------------------------------------------------------------------
  
 Number of occupied molecular orbitals (MOs) = Number of occupied bands       12
 Number of unoccupied (= virtual) MOs = Number of unoccupied bands            24
 Number of Gaussian basis functions for MOs                                   36
 Number of cells considered in the DFT calculation                          1032
 Number of cells for G, , W,                                               343
 Number of special k-points for the bandstructure                              4
 Number of k-points for the bandstructure                                    660

 SOC requested, SOC energy window:                                       10.0 eV

 
 SCF valence band maximum (eV):                                            6.234
 SCF conduction band minimum (eV):                                         4.393
 SCF indirect band gap (eV):                                              -1.841
 SCF direct band gap (eV):                                                 1.291
 
 SCF+SOC valence band maximum (eV):                                        6.234
 SCF+SOC conduction band minimum (eV):                                     4.393
 SCF+SOC indirect band gap (eV):                                          -1.841
 SCF+SOC direct band gap (eV):                                             1.294

 ENERGY| Total FORCE_EVAL ( QS ) energy [hartree]            -82.248835996153289

 -------------------------------------------------------------------------------
 -                                                                             -
 -                                DBCSR STATISTICS                             -
 -                                                                             -
 -------------------------------------------------------------------------------
 COUNTER                                    TOTAL       BLAS       SMM       ACC
 flops inhomo. stacks                           0       0.0%      0.0%      0.0%
 flops total                         0.000000E+00       0.0%      0.0%      0.0%
 flops max/rank                      0.000000E+00       0.0%      0.0%      0.0%
 matmuls inhomo. stacks                         0       0.0%      0.0%      0.0%
 matmuls total                                  0       0.0%      0.0%      0.0%
 number of processed stacks                     0       0.0%      0.0%      0.0%
 average stack size                                     0.0       0.0       0.0
 marketing flops                     0.000000E+00
 -------------------------------------------------------------------------------
 -                                                                             -
 -                      DBCSR MESSAGE PASSING PERFORMANCE                      -
 -                                                                             -
 -------------------------------------------------------------------------------
 ROUTINE             CALLS      AVE VOLUME [Bytes]
 MP_Bcast                1                     12.
 MP_Allreduce           19                     21.
 MP_Alltoall        661792                   2275.
 -------------------------------------------------------------------------------

 -------------------------------------------------------------------------------
 -                                                                             -
 -                                DBM STATISTICS                               -
 -                                                                             -
 -------------------------------------------------------------------------------
    M  x    N  x    K                                          COUNT     PERCENT
 -------------------------------------------------------------------------------

 -------------------------------------------------------------------------------
 -                                                                             -
 -                                GRID STATISTICS                              -
 -                                                                             -
 -------------------------------------------------------------------------------
 LP    KERNEL             BACKEND                              COUNT     PERCENT
 4     collocate ortho    CPU                                 359372      50.98%
 4     integrate ortho    CPU                                 345550      49.02%
 0     collocate general  CPU                                      4       0.00%
 0     integrate general  CPU                                      2       0.00%
 -------------------------------------------------------------------------------

 MEMORY| Estimated peak process memory [MiB]                                 486

 -------------------------------------------------------------------------------
 ----                             MULTIGRID INFO                            ----
 -------------------------------------------------------------------------------
 count for grid        1:           9512          cutoff [a.u.]          500.00
 count for grid        2:          30230          cutoff [a.u.]          166.67
 count for grid        3:          21792          cutoff [a.u.]           55.56
 count for grid        4:          23148          cutoff [a.u.]           18.52
 total gridlevel count  :          84682

 -------------------------------------------------------------------------------
 -                                                                             -
 -                         MESSAGE PASSING PERFORMANCE                         -
 -                                                                             -
 -------------------------------------------------------------------------------

 ROUTINE             CALLS      AVE VOLUME [Bytes]
 MP_Group                5
 MP_Bcast           230607                   2471.
 MP_Allreduce        80792                     37.
 MP_Sync                 4
 MP_Alltoall           455                2540876.
 MP_SendRecv           742                 148882.
 MP_ISendRecv          707                 146032.
 MP_Wait            159107
 MP_comm_split           3
 MP_ISend           168000                    308.
 MP_IRecv           268800                    195.
 -------------------------------------------------------------------------------


 -------------------------------------------------------------------------------
 -                                                                             -
 -                           R E F E R E N C E S                               -
 -                                                                             -
 -------------------------------------------------------------------------------
 
 CP2K version 2025.1 (Development Version), the CP2K developers group (2025).
 CP2K is freely available from https://www.cp2k.org/ .
 
 T. D. Kuehne, M. Iannuzzi, M. Del Ben, V. V. Rybkin, P. Seewald, F. Stein, T. 
 Laino, R. Z. Khaliullin, O. Schuett, F. Schiffmann, D. Golze, J. Wilhelm, S. 
 Chulkov, M. H. Bani-Hashemian, V. Weber, U. Borstnik, M. Taillefumier, A. S. 
 Jakobovits, A. Lazzaro, H. Pabst, T. Mueller, R. Schade, M. Guidon, S. 
 Andermatt, N. Holmberg, G. K. Schenter, A. Hehn, A. Bussy, F. Belleflamme, G. 
 Tabacchi, A. Gloess, M. Lass, I. Bethune, C. J. Mundy, C. Plessl, M. Watkins, 
 J. VandeVondele, M. Krack, J. Hutter.
 J. Chem. Phys. 152, 194103 (2020).
 CP2K: An electronic structure and molecular dynamics software package - 
 Quickstep: Efficient and accurate electronic structure calculations.
 https://doi.org/10.1063/5.0007045

 O. Schuett, P. Messmer, J. Hutter, J. VandeVondele.
 Electronic Structure Calculations on Graphics Processing Units, 173-190 (2016).
 GPU-Accelerated Sparse Matrix-Matrix Multiplication for Linear Scaling Density 
 Functional Theory.
 https://doi.org/10.1002/9781118670712.ch8

 J. Hutter, M. Iannuzzi, F. Schiffmann, J. VandeVondele.
 WIREs Comput Mol Sci. 4, 15-25 (2014).
 CP2K: atomistic simulations of condensed matter systems.
 https://doi.org/10.1002/wcms.1159

 U. Borstnik, J. VandeVondele, V. Weber, J. Hutter.
 Parallel Comput. 40, 47-58 (2014).
 Sparse matrix multiplication: The distributed block-compressed sparse row 
 library.
 https://doi.org/10.1016/j.parco.2014.03.012

 J. VandeVondele, J. Hutter.
 J. Chem. Phys. 127, 114105 (2007).
 Gaussian basis sets for accurate calculations on molecular systems in gas and 
 condensed phases.
 https://doi.org/10.1063/1.2770708

 J. VandeVondele, M. Krack, F. Mohamed, M. Parrinello, T. Chassaing, J. Hutter.
 Comput. Phys. Commun. 167, 103-128 (2005).
 QUICKSTEP: Fast and accurate density functional calculations using a mixed 
 Gaussian and plane waves approach.
 https://doi.org/10.1016/j.cpc.2004.12.014

 M. Krack.
 Theor. Chem. Acc. 114, 145-152 (2005).
 Pseudopotentials for H to Kr optimized for gradient-corrected 
 exchange-correlation functionals.
 https://doi.org/10.1007/s00214-005-0655-y

 M. Frigo, S. G. Johnson.
 Proc. IEEE 93, 216-231 (2005).
 The design and implementation of FFTW3.
 https://doi.org/10.1109/JPROC.2004.840301

 C. Hartwigsen, S. Goedecker, J. Hutter.
 Phys. Rev. B 58, 3641-3662 (1998).
 Relativistic separable dual-space Gaussian pseudopotentials from H to Rn.
 https://doi.org/10.1103/PhysRevB.58.3641

 G. Lippert, J. Hutter, M. Parrinello.
 Mol. Phys. 92, 477-487 (1997).
 A hybrid Gaussian and plane wave density functional scheme.
 https://doi.org/10.1080/002689797170220

 S. Goedecker, M. Teter, J. Hutter.
 Phys. Rev. B 54, 1703-1710 (1996).
 Separable dual-space Gaussian pseudopotentials.
 https://doi.org/10.1103/PhysRevB.54.1703

 J. P. Perdew, K. Burke, M. Ernzerhof.
 Phys. Rev. Lett. 77, 3865-3868 (1996).
 Generalized gradient approximation made simple.
 https://doi.org/10.1103/PhysRevLett.77.3865


 -------------------------------------------------------------------------------
 -                                                                             -
 -                                T I M I N G                                  -
 -                                                                             -
 -------------------------------------------------------------------------------
 SUBROUTINE                       CALLS  ASD         SELF TIME        TOTAL TIME
                                MAXIMUM       AVERAGE  MAXIMUM  AVERAGE  MAXIMUM
 CP2K                                 1  1.0    0.013    0.016  113.734  113.735
 qs_energies                          1  2.0    0.004    0.004  113.504  113.515
 scf_env_do_scf                       1  3.0    0.000    0.000   89.755   89.756
 scf_env_do_scf_inner_loop           25  4.0    0.023    0.025   89.755   89.755
 qs_scf_new_mos_kp                   25  5.0    0.000    0.000   82.284   83.054
 do_general_diag_kp                  25  6.0    0.134    0.153   82.284   83.054
 mp_alltoall_i22                 113532  9.0   60.272   74.230   60.272   74.230
 dbcsr_desymmetrize_deep          66466  7.7    0.965    1.099   49.064   59.281
 rskp_transform                   16100  7.2    9.106   48.576    9.106   48.576
 dbcsr_complete_redistribute      47066  8.4    1.436    1.635   28.330   32.052
 kpoint_density_transform            25  7.0    0.059    0.070   23.105   23.169
 qs_energies_properties               1  3.0    0.000    0.000   22.660   22.670
 post_scf_bandstructure               1  4.0    0.000    0.000   22.660   22.670
 copy_fm_to_dbcsr                 12800  8.0    0.073    0.082   18.440   21.920
 transform_dmat                    6400  8.0    3.486   18.641    3.486   18.641
 copy_dbcsr_to_fm                 34266  7.1    0.337    0.378   15.419   15.645
 rsmat_to_kp                       3300  7.0    0.051    0.056   14.111   14.118
 soc                                  1  5.0    0.000    0.001    9.835    9.835
 H_KS_spinor_kp                       1  6.0    0.009    0.011    9.334    9.591
 create_and_init_bs_env               1  5.0    0.000    0.000    8.851    8.851
 compute_cfm_mo_coeff_kp_and_ei       1  6.0    0.004    0.005    8.848    8.848
 cp_cfm_heevd                      3580  7.8    0.004    0.005    6.684    6.688
 cp_cfm_heevd_base                 3580  8.8    6.680    6.683    6.680    6.683
 qs_ks_update_qs_env                 25  5.0    0.000    0.000    2.286    5.649
 rebuild_ks_matrix                   25  6.0    0.000    0.000    1.562    4.925
 qs_ks_build_kohn_sham_matrix        25  7.0    0.044    0.046    1.562    4.925
 sum_up_and_integrate                25  8.0    0.000    0.000    0.970    4.311
 integrate_v_rspace                  25  9.0    0.015    0.078    0.969    4.310
 dbcsr_finalize                  161088  8.6    0.571    0.674    3.737    4.307
 grid_integrate_task_list            25 10.0    0.771    4.072    0.771    4.072
 dos_pdos_ldos                        1  5.0    0.004    0.004    3.974    3.985
 SOC_ev                             660  6.0    0.009    0.010    3.687    3.693
 cp_cfm_geeig_canon                1460  7.0    0.010    0.011    3.686    3.692
 transfer_rs2pw                     106  8.0    0.001    0.002    2.668    3.274
 transfer_rs2pw_500                  28  8.9    0.043    0.047    2.632    3.236
 mp_sendrecv_dv                     742 10.0    2.614    3.221    2.614    3.221
 qs_rho_update_rho_low               26  5.0    0.000    0.000    3.023    3.037
 calculate_rho_elec                  26  6.0    0.014    0.024    3.023    3.037
 mp_cart_sub                      68534  9.1    2.927    2.956    2.927    2.956
 cp_fm_start_copy_general         38400  7.3    0.479    0.730    2.897    2.951
 density_rs2pw                       26  7.0    0.001    0.001    2.417    2.935
 grid_collocate_task_list            26  7.0    0.591    2.765    0.591    2.765
 mp_alltoall_d11v                340596  9.6    2.421    2.646    2.421    2.646
 dbcsr_merge_all                  50162 10.4    1.274    1.554    2.059    2.384
 hybrid_alltoall_any              66466  8.7    0.254    0.280    1.708    1.894
 cp_dbcsr_alloc_block_from_nbl    21198  6.6    0.361    1.666    0.408    1.795
 mp_cart_create                   34272  9.1    1.579    1.632    1.579    1.632
 mp_alltoall_i11v                207664  9.1    1.423    1.465    1.423    1.465
 write_kpoints_restart               25  5.0    0.008    0.016    1.379    1.379
 V_SOC_xyz_from_pseudopotential       1  6.0    0.030    0.031    0.501    1.309
 mp_allgather_i                   76800  8.3    1.133    1.208    1.133    1.208
 dbcsr_work_create               116628  9.0    0.646    0.711    1.072    1.207
 mp_sum_iv                         1340  8.9    0.885    1.158    0.885    1.158
 dbcsr_create_new                242915  8.1    0.863    0.942    1.052    1.145
 alloc_cfm_double_array_1d            1  7.0    0.001    0.001    0.820    1.077
 create_cfm_double                  660  8.0    0.003    0.003    0.819    1.076
 mp_bcast_iv                     153627  8.3    0.918    1.039    0.918    1.039
 dbcsr_iterator_start            386421  9.0    0.774    0.805    0.878    0.943
 dbcsr_data_new                 1255652  9.8    0.757    0.900    0.757    0.900
 dbcsr_dot                        51601  8.0    0.211    0.283    0.824    0.856
 dbcsr_work_destroy_all          116628 10.0    0.527    0.554    0.794    0.835
 dbcsr_copy                       68528  7.0    0.345    0.386    0.614    0.786
 copy_dbcsr_to_fm_bc              34266  8.1    0.320    0.334    0.720    0.743
 evaluate_core_matrix_traces         25  6.0    0.000    0.000    0.724    0.724
 calculate_ptrace_kp                 50  7.0    0.037    0.038    0.724    0.724
 mp_sum_d                         52219  8.9    0.568    0.643    0.568    0.643
 tree_to_linear_d                 47066 11.4    0.610    0.622    0.610    0.622
 dbcsr_data_release             1775005 10.2    0.581    0.615    0.581    0.615
 qs_energies_init_hamiltonians        1  3.0    0.000    0.000    0.603    0.603
 copy_fm_to_dbcsr_bc              12800  9.0    0.160    0.176    0.548    0.599
 dbcsr_iterator_stop             386421  9.0    0.485    0.512    0.568    0.594
 dbcsr_destroy                   188219  8.1    0.298    0.319    0.559    0.594
 cp_cfm_gemm                       7680  8.4    0.528    0.540    0.528    0.540
 dbcsr_add_d                       3096  7.0    0.003    0.003    0.213    0.537
 dbcsr_add_anytype                 3096  8.0    0.011    0.035    0.210    0.534
 build_core_hamiltonian_matrix        1  4.0    0.004    0.004    0.141    0.457
 self_consistency_check              25  5.0    0.036    0.039    0.436    0.450
 cp_fm_write_unformatted           2064  6.0    0.401    0.426    0.405    0.440
 fft_wrap_pw1pw2                    455 10.0    0.003    0.004    0.410    0.428
 qs_env_update_s_mstruct              1  4.0    0.000    0.000    0.361    0.427
 calculate_rho_core                   1  5.0    0.001    0.002    0.329    0.417
 parallel_gemm_cfm                 3300  7.0    0.003    0.003    0.379    0.392
 fft_wrap_pw1pw2_500                302 11.3    0.030    0.030    0.373    0.392
 parallel_gemm_cfm_gemm            3300  8.0    0.003    0.003    0.376    0.389
 cp_sm_mix                        25800  6.0    0.067    0.108    0.364    0.382
 quick_finalize                   66466  9.7    0.169    0.220    0.277    0.374
 fft3d_ps                           455 12.0    0.142    0.145    0.325    0.345
 add_to_DOS_PDOS                   1320  6.5    0.334    0.337    0.334    0.337
 mp_comm_free                    103495  9.1    0.297    0.321    0.297    0.321
 kpoint_set_mo_occupation            25  7.0    0.289    0.300    0.301    0.316
 init_scf_run                         1  3.0    0.000    0.000    0.277    0.310
 scf_env_initial_rho_setup            1  4.0    0.000    0.000    0.277    0.310
 dbcsr_copy_into_existing         13832  9.7    0.104    0.227    0.181    0.306
 qs_vxc_create                       25  8.0    0.000    0.000    0.280    0.280
 xc_vxc_pw_create                    25  9.0    0.013    0.013    0.279    0.280
 mp_bcast_im                      76800  8.3    0.213    0.268    0.213    0.268
 mp_max_d                         25802  7.0    0.236    0.264    0.236    0.264
 mp_waitall_1                    159107  8.4    0.133    0.262    0.133    0.262
 gspace_mixing                       24  5.0    0.010    0.010    0.249    0.249
 build_core_ppnl                      2  6.0    0.069    0.221    0.069    0.221
 dbcsr_set                       141287  7.7    0.125    0.132    0.174    0.220
 broyden_mixing                      24  6.0    0.199    0.203    0.208    0.209
 potential_pw2rs                     25 10.0    0.001    0.001    0.183    0.200
 dbcsr_reserve_blocks             33998  8.9    0.086    0.162    0.103    0.192
 mixing_allocate                      1  3.0    0.006    0.006    0.054    0.191
 calculate_first_density_matrix       1  5.0    0.001    0.001    0.142    0.175
 xc_pw_derive                       150 11.0    0.000    0.001    0.173    0.174
 calculate_atomic_block_dm            1  6.0    0.001    0.001    0.140    0.173
 add_cfm_submat                    5280  7.0    0.044    0.045    0.166    0.169
 mp_alltoall_z22v                   455 14.0    0.148    0.169    0.148    0.169
 compute_proj_mo_on_kind            660  6.0    0.012    0.013    0.153    0.168
 xc_rho_set_and_dset_create          25 10.0    0.007    0.009    0.149    0.151
 dbcsr_sort_indices              147530 11.0    0.078    0.145    0.078    0.145
 dbcsr_iterator_seek             386421 10.0    0.104    0.138    0.104    0.138
 cp_fm_finish_copy_general        16000  7.8    0.087    0.099    0.105    0.129
 dbcsr_make_index_exist          242915  9.1    0.117    0.128    0.117    0.128
 dbcsr_scale_anytype               3097  9.0    0.022    0.025    0.115    0.126
 kpoint_density_matrices             25  7.0    0.008    0.009    0.107    0.118
 transfer_pw2rs                     101 11.0    0.001    0.001    0.118    0.118
 xc_pw_divergence                    25 10.0    0.000    0.000    0.115    0.116
 calculate_ecore_overlap              1  4.0    0.000    0.000    0.093    0.115
 build_overlap_matrix_low             1  5.0    0.009    0.019    0.033    0.110
 build_kinetic_matrix_low             1  5.0    0.009    0.018    0.032    0.108
 parallel_gemm_fm                  3200  8.0    0.003    0.003    0.097    0.108
 yz_to_x                            205 12.8    0.012    0.012    0.089    0.108
 merge_index                      50162 11.4    0.089    0.106    0.089    0.106
 parallel_gemm_fm_gemm             3200  9.0    0.003    0.003    0.094    0.105
 cp_fm_gemm                        3200 10.0    0.091    0.102    0.091    0.102
 parser_read_line                  8511  4.0    0.003    0.003    0.094    0.095
 qs_env_rebuild_rho                   1  5.0    0.000    0.000    0.026    0.095
 qs_rho_rebuild                       1  6.0    0.003    0.003    0.026    0.095
 x_to_yz                            250 13.2    0.020    0.021    0.091    0.095
 dbcsr_reserve_all_blocks         12800 10.0    0.018    0.021    0.083    0.094
 parser_read_line_low                26  6.1    0.009    0.035    0.091    0.093
 transfer_pw2rs_500                  26 11.8    0.045    0.049    0.087    0.089
 dbcsr_zero                      141287  8.7    0.049    0.089    0.049    0.089
 broadcast_input_information         26  7.1    0.028    0.032    0.082    0.087
 qs_scf_ensure_work_matrices          1  3.0    0.000    0.000    0.069    0.085
 cp_fm_to_fm_submat               10560  8.0    0.082    0.084    0.082    0.084
 dbcsr_switch_data_area           66466 10.7    0.061    0.062    0.078    0.080
 create_qs_kind_set                   1  2.0    0.000    0.000    0.076    0.077
 read_qs_kind                         1  3.0    0.041    0.043    0.076    0.077
 mp_irecv_iv                     153600  8.3    0.009    0.075    0.009    0.075
 topology_control                     1  2.0    0.000    0.000    0.065    0.065
 mp_isend_dv                      38400  8.3    0.055    0.060    0.055    0.060
 write_SOC_eigenvalues              148  6.0    0.007    0.054    0.007    0.054
 scf_post_calculation_gpw             1  3.0    0.000    0.000    0.053    0.053
 write_available_results              1  4.0    0.000    0.000    0.053    0.053
 write_mo_free_results                1  5.0    0.001    0.001    0.053    0.053
 xc_functional_eval                  25 11.0    0.000    0.000    0.051    0.053
 pbe_lda_eval                        25 12.0    0.051    0.052    0.051    0.052
 mp_isend_iv                      86400  8.3    0.013    0.052    0.013    0.052
 cp_fm_cleanup_copy_general       27200  7.1    0.030    0.031    0.046    0.048
 read_cell_cif                        2  4.5    0.002    0.005    0.045    0.045
 dbcsr_get_data_size_used        116628 10.0    0.037    0.044    0.037    0.044
 build_core_ppl                       1  5.0    0.010    0.043    0.010    0.043
 dbcsr_distribution_new           47068  8.6    0.034    0.041    0.034    0.041
 mp_sum_dv                         1344  7.0    0.031    0.041    0.031    0.041
 dbcsr_make_dbcsr_index          150626 11.0    0.035    0.040    0.035    0.040
 mp_bcast_i_src                     104  8.1    0.034    0.039    0.034    0.039
 coordinate_control                   1  3.0    0.001    0.001    0.039    0.039
 coordinate_control_READ_COORDI       1  4.0    0.000    0.000    0.038    0.039
 read_coordinate_cif                  1  5.0    0.002    0.002    0.038    0.039
 mp_irecv_im2                     76800  8.3    0.005    0.036    0.005    0.036
 dbcsr_data_copy_aa2              47066 11.2    0.020    0.033    0.020    0.033
 mp_isendrecv_dv                    707 13.0    0.012    0.033    0.012    0.033
 qs_init_subsys                       1  2.0    0.001    0.002    0.032    0.032
 qs_create_task_list                  1  5.0    0.000    0.000    0.006    0.030
 generate_qs_task_list                1  6.0    0.004    0.022    0.006    0.030
 qs_env_setup                         1  3.0    0.000    0.000    0.029    0.030
 qs_env_rebuild_pw_env                2  3.5    0.000    0.000    0.028    0.029
 pw_env_rebuild                       1  5.0    0.000    0.000    0.028    0.029
 transfer_rs2pw_170                  26  9.0    0.006    0.007    0.024    0.027
 pw_scatter_p                       250 12.2    0.027    0.027    0.027    0.027
 pw_poisson_solve                    25  8.0    0.000    0.000    0.026    0.027
 hirshfeld_integration                1  6.0    0.005    0.022    0.025    0.025
 mp_isend_im2                     43200  8.3    0.006    0.024    0.006    0.024
 mp_irecv_dv                      38400  8.3    0.022    0.023    0.022    0.023
 transfer_pw2rs_170                  25 12.0    0.008    0.008    0.020    0.023
 mp_bcast_am_src                     26  8.1    0.014    0.015    0.021    0.022
 cp_cfm_scale_and_add_fm          13760  7.8    0.021    0.021    0.021    0.021
 calculate_hirshfeld_normalizat       1  6.0    0.004    0.018    0.021    0.021
 cp_fm_create                     22672  7.9    0.020    0.020    0.020    0.020
 fft_wrap_pw1pw2_170                 51 10.5    0.001    0.001    0.019    0.020
 pw_grid_setup                        4  6.0    0.000    0.000    0.019    0.020
 pw_grid_setup_internal               4  7.0    0.001    0.001    0.019    0.020
 pw_integral_ab_c1d_c1d_gs           25  9.0    0.015    0.015    0.016    0.016
 mp_sum_dm3                          25  8.0    0.012    0.016    0.012    0.016
 pw_gather_p                        205 11.8    0.015    0.015    0.015    0.015
 mp_recv_dv                        6192  7.0    0.002    0.014    0.002    0.014
 mp_comm_size                     52525  9.0    0.013    0.014    0.013    0.014
 mp_sum_l                           429  2.1    0.009    0.013    0.009    0.013
 restraint_control                    1  2.0    0.000    0.000    0.011    0.012
 mp_sum_i                             3  2.3    0.011    0.012    0.011    0.012
 write_dos_pdos                       2  6.0    0.002    0.012    0.002    0.012
 mp_comm_rank                     52525  9.0    0.011    0.012    0.011    0.012
 pw_copy                            375 10.5    0.011    0.012    0.011    0.012
 mixing_init                          1  5.0    0.011    0.012    0.012    0.012
 -------------------------------------------------------------------------------

 The number of warnings for this run is : 1
 
 -------------------------------------------------------------------------------
  **** **** ******  **  PROGRAM ENDED AT                 2025-08-07 23:53:03.219
 ***** ** ***  *** **   PROGRAM RAN ON                              i04r06c05s06
 **    ****   ******    PROGRAM RAN BY                                   di38fab
 ***** **    ** ** **   PROGRAM PROCESS ID                                634524
  **** **  *******  **  PROGRAM STOPPED IN /hppfs/scratch/04/di38fab/09_GTH/Delt
                                           a_Set/Hg/aug-SZV-MOLOPT-GTH-tier-1/8x
                                           8x8
