Se                                      
   1.00000000000000     
     4.524640    0.000000    0.000000
    -2.262320    3.918453    0.000000
     0.000000    0.000000    5.049780
   Se
     3
Direct
  0.219030  0.000000  0.333333
  0.000000  0.219030  0.666667
  0.780970  0.780970  0.000000
 
   36   36   40
  41.038      34.836      28.864      23.577      19.082      15.360      12.339      9.9255      8.0226      6.5317    
  5.3602      4.4316      3.6948      3.1255      2.7193      2.4829      2.4307      2.5888      3.0056      3.7620    
  4.9785      6.8131      9.4479      13.066      17.819      23.783      30.865      38.702      46.391      52.578    
  56.453      57.903      57.277      55.027      51.460      46.731      34.837      30.057      25.444      21.244    
  17.575      14.461      11.872      9.7573      8.0511      6.6819      5.5773      4.6743      3.9300      3.3239    
  2.8537      2.5261      2.3526      2.3507      2.5492      2.9949      3.7607      4.9510      6.6946      9.1250    
  12.354      16.443      21.367      26.954      32.832      38.415      42.932      45.718      46.555      45.569    
  43.049      39.338      28.864      25.444      21.995      18.745      15.825      13.286      11.132      9.3382    
  7.8637      6.6549      5.6553      4.8146      4.0978      3.4886      2.9867      2.6000      2.3396      2.2194    
  2.2584      2.4848      2.9405      3.6885      4.8135      6.4127      8.5742      11.352      14.744      18.663    
  22.910      27.149      30.936      33.801      35.378      35.508      34.271      31.933      23.577      21.244    
  18.745      16.287      14.006      11.973      10.216      8.7319      7.4949      6.4643      5.5934      4.8412    
  4.1800      3.5979      3.0956      2.6811      2.3660      2.1633      2.0880      2.1586      2.4009      2.8505    
  3.5575      4.5855      6.0039      7.8674      10.191      12.927      15.960      19.095      22.063      24.551    
  26.262      26.995      26.700      25.487      19.082      17.574      15.824      14.005      12.249      10.641    
  9.2256      8.0162      6.9993      6.1430      5.4079      4.7587      4.1727      3.6410      3.1648      2.7514    
  2.4116      2.1582      2.0048      1.9660      2.0593      2.3068      2.7366      3.3852      4.2983      5.5234    
  7.0895      8.9845      11.142      13.442      15.718      17.768      19.375      20.357      20.614      20.153    
  15.360      14.460      13.286      11.973      10.641      9.3799      8.2471      7.2687      6.4407      5.7388    
  5.1307      4.5865      4.0858      3.6197      3.1892      2.8006      2.4628      2.1870      1.9860      1.8735    
  1.8631      1.9701      2.2135      2.6144      3.1973      3.9904      5.0220      6.3057      7.8207      9.4999    
  11.233      12.878      14.283      15.307      15.845      15.853      12.338      11.872      11.132      10.217    
  9.2266      8.2477      7.3446      6.5531      5.8780      5.3028      4.8029      4.3547      3.9395      3.5470    
  3.1753      2.8288      2.5143      2.2405      2.0187      1.8618      1.7816      1.7903      1.9023      2.1337    
  2.4992      3.0118      3.6873      4.5425      5.5822      6.7819      8.0783      9.3753      10.561      11.525    
  12.175      12.451      9.9247      9.7578      9.3387      8.7322      8.0167      7.2690      6.5527      5.9092    
  5.3529      4.8767      4.4639      4.0972      3.7612      3.4438      3.1386      2.8459      2.5706      2.3190    
  2.0994      1.9227      1.8001      1.7422      1.7600      1.8663      2.0748      2.3974      2.8430      3.4179    
  4.1253      4.9600      5.8991      6.8927      7.8644      8.7251      9.3920      9.8031      8.0230      8.0528    
  7.8647      7.4946      6.9988      6.4405      5.8772      5.3519      4.8873      4.4869      4.1432      3.8451    
  3.5804      3.3358      3.1005      2.8704      2.6469      2.4337      2.2357      2.0603      1.9175      1.8177    
  1.7698      1.7838      1.8719      2.0482      2.3244      2.7053      3.1884      3.7684      4.4373      5.1762    
  5.9438      6.6767      7.3047      7.7673      6.5327      6.6840      6.6562      6.4637      6.1418      5.7385    
  5.3029      4.8760      4.4860      4.1467      3.8608      3.6233      3.4242      3.2495      3.0862      2.9262    
  2.7668      2.6073      2.4483      2.2932      2.1491      2.0257      1.9328      1.8803      1.8781      1.9364    
  2.0675      2.2840      2.5932      2.9926      3.4714      4.0150      4.6018      5.1969      5.7513      6.2118    
  5.3606      5.5780      5.6557      5.5925      5.4063      5.1304      4.8041      4.4648      4.1430      3.8604    
  3.6285      3.4487      3.3129      3.2081      3.1208      3.0405      2.9599      2.8725      2.7727      2.6583    
  2.5320      2.4008      2.2755      2.1690      2.0929      2.0552      2.0645      2.1349      2.2842      2.5223    
  2.8435      3.2320      3.6697      4.1359      4.6007      5.0232      4.4314      4.6735      4.8136      4.8401    
  4.7576      4.5864      4.3559      4.0987      3.8458      3.6233      3.4487      3.3283      3.2580      3.2279    
  3.2262      3.2413      3.2612      3.2724      3.2607      3.2150      3.1311      3.0116      2.8650      2.7053    
  2.5503      2.4169      2.3176      2.2626      2.2649      2.3396      2.4960      2.7315      3.0330      3.3811    
  3.7512      4.1129      3.6949      3.9290      4.0965      4.1794      4.1729      4.0864      3.9403      3.7616    
  3.5803      3.4238      3.3131      3.2584      3.2613      3.3177      3.4199      3.5566      3.7113      3.8615    
  3.9817      4.0481      4.0449      3.9665      3.8159      3.6054      3.3576      3.1028      2.8695      2.6758    
  2.5310      2.4446      2.4308      2.5004      2.6527      2.8730      3.1380      3.4214      3.1258      3.3237    
  3.4883      3.5983      3.6422      3.6210      3.5475      3.4431      3.3343      3.2482      3.2078      3.2284    
  3.3182      3.4809      3.7155      4.0132      4.3531      4.7024      5.0208      5.2676      5.4081      5.4200    
  5.2965      5.0471      4.6973      4.2864      3.8606      3.4620      3.1191      2.8473      2.6549      2.5486    
  2.5316      2.5993      2.7366      2.9209      2.7190      2.8536      2.9870      3.0964      3.1659      3.1901    
  3.1754      3.1377      3.0993      3.0852      3.1205      3.2265      3.4204      3.7157      4.1207      4.6313    
  5.2242      5.8563      6.4703      7.0021      7.3881      7.5762      7.5381      7.2756      6.8181      6.2153    
  5.5309      4.8352      4.1922      3.6452      3.2115      2.8906      2.6774      2.5669      2.5499      2.6089    
  2.4825      2.5257      2.6000      2.6815      2.7517      2.8003      2.8278      2.8451      2.8703      2.9269    
  3.0414      3.2418      3.5567      4.0130      4.6311      5.4151      6.3442      7.3690      8.4140      9.3840    
  10.174      10.684      10.843      10.626      10.063      9.2225      8.2013      7.1038      6.0303      5.0617    
  4.2480      3.6057      3.1275      2.7964      2.5929      2.4962      2.4308      2.3525      2.3395      2.3660    
  2.4114      2.4619      2.5129      2.5696      2.6473      2.7684      2.9616      3.2620      3.7110      4.3525    
  5.2238      6.3441      7.7036      9.2546      10.907      12.527      13.955      15.018      15.573      15.536    
  14.913      13.791      12.321      10.667      8.9866      7.4067      6.0214      4.8830      4.0013      3.3529    
  2.8995      2.6031      2.5892      2.3511      2.2196      2.1634      2.1581      2.1866      2.2399      2.3187    
  2.4342      2.6083      2.8732      3.2724      3.8608      4.7017      5.8560      7.3691      9.2547      11.480    
  13.949      16.495      18.884      20.844      22.117      22.518      21.984      20.592      18.544      16.107    
  13.546      11.083      8.8708      7.0015      5.5076      4.3728      3.5480      2.9725      3.0055      2.5493    
  2.2587      2.0881      2.0048      1.9862      2.0192      2.1003      2.2366      2.4485      2.7719      3.2593    
  3.9805      5.0204      6.4706      8.4145      10.907      13.950      17.462      21.253      25.012      28.339    
  30.813      32.082      31.948      30.423      27.730      24.256      20.444      16.686      13.260      10.320    
  7.9238      6.0615      4.6773      3.6885      3.7616      2.9944      2.4846      2.1586      1.9658      1.8734    
  1.8621      1.9236      2.0613      2.2933      2.6572      3.2135      4.0472      5.2678      7.0030      9.3848    
  12.528      16.495      21.253      26.611      32.196      37.443      41.652      44.303      45.097      43.899    
  40.781      36.129      30.662      25.068      19.859      15.336      11.616      8.6917      6.4860      4.8852    
  4.9787      3.7605      2.9402      2.4007      2.0592      1.8628      1.7813      1.8000      1.9176      2.1490    
  2.5315      3.1307      4.0453      5.4092      7.3892      10.174      13.954      18.883      25.011      32.196    
  39.942      47.181      53.039      57.077      59.116      59.021      56.628      51.885      45.122      37.251    
  29.550      22.738      17.088      12.624      9.2320      6.7446      6.8136      4.9514      3.6886      2.8506    
  2.3069      1.9703      1.7902      1.7417      1.8169      2.0249      2.4004      3.0121      3.9678      5.4214    
  7.5769      10.683      15.017      20.843      28.338      37.443      47.181      55.970      62.837      67.559    
  70.372      71.491      70.762      67.686      61.821      53.318      43.228      33.346      24.976      18.315    
  13.235      9.4912      9.4476      6.6948      4.8137      3.5576      2.7368      2.2139      1.9027      1.7602    
  1.7697      1.9323      2.2751      2.8653      3.8170      5.2973      7.5378      10.841      15.571      22.117    
  30.813      41.652      53.039      62.838      69.804      73.916      76.091      77.412      78.281      78.049    
  75.402      69.255      59.576      47.694      35.944      26.279      18.863      13.382      13.065      9.1248    
  6.4127      4.5854      3.3850      2.6145      2.1339      1.8666      1.7843      1.8809      2.1693      2.7053    
  3.6055      5.0469      7.2746      10.625      15.536      22.519      32.083      44.304      57.077      67.559    
  73.916      76.026      75.492      74.765      75.654      78.125      80.253      79.395      73.747      63.342    
  50.080      36.973      26.476      18.676      17.819      12.354      8.5744      6.0037      4.2979      3.1971    
  2.4990      2.0744      1.8717      1.8787      2.0937      2.5506      3.3572      4.6967      6.8173      10.062    
  14.913      21.985      31.950      45.097      59.115      70.371      76.091      75.492      70.393      64.695    
  62.461      65.528      72.291      78.663      80.462      75.535      64.501      50.175      36.318      25.582    
  23.783      16.444      11.353      7.8676      5.5231      3.9903      3.0120      2.3971      2.0473      1.9359    
  2.0557      2.4174      3.1025      4.2858      6.2152      9.2229      13.792      20.593      30.424      43.899    
  59.019      71.490      77.412      74.765      64.694      51.853      42.754      42.372      51.103      64.465    
  75.801      79.895      75.078      63.160      48.059      34.152      30.866      21.367      14.744      10.191    
  7.0894      5.0218      3.6879      2.8438      2.3243      2.0666      2.0641      2.3179      2.8693      3.8601    
  5.5312      8.2024      12.321      18.544      27.730      40.781      56.627      70.761      78.281      75.655    
  62.461      42.754      24.508      16.176      21.903      38.890      59.114      74.008      78.577      72.618    
  59.482      44.048      38.702      26.953      18.662      12.927      8.9845      6.3051      4.5424      3.4189    
  2.7062      2.2839      2.1345      2.2628      2.6759      3.4614      4.8351      7.1048      10.668      16.106    
  24.255      36.128      51.885      67.685      78.049      78.126      65.528      42.371      16.176     -2.3891    
 -4.8779      9.8130      34.693      58.976      73.959      76.375      68.062      53.721      46.391      32.830    
  22.908      15.960      11.142      7.8205      5.5813      4.1251      3.1891      2.5935      2.2841      2.2653    
  2.5315      3.1189      4.1917      6.0306      8.9871      13.546      20.442      30.662      45.123      61.822    
  75.403      80.254      72.291      51.103      21.902     -4.8782     -17.915     -11.362      11.448      40.106    
  63.301      74.278      72.380      61.283      52.578      38.414      27.148      19.094      13.443      9.5008    
  6.7815      4.9592      3.7682      2.9925      2.5218      2.3396      2.4454      2.8477      3.6448      5.0614    
  7.4070      11.083      16.685      25.068      37.253      53.320      69.255      79.394      78.663      64.465    
  38.890      9.8133     -11.361     -15.394     -.76921      25.326      51.496      68.439      72.584      65.727    
  56.452      42.932      30.937      22.063      15.720      11.234      8.0785      5.8988      4.4372      3.4714    
  2.8429      2.4954      2.4309      2.6554      3.2114      4.2475      6.0214      8.8711      13.259      19.859    
  29.551      43.229      59.576      73.746      80.460      75.801      59.114      34.693      11.449     -.76821    
  3.3449      21.233      44.139      62.390      70.207      67.125      57.902      45.718      33.802      24.552    
  17.768      12.878      9.3749      6.8924      5.1766      4.0157      3.2321      2.7309      2.5001      2.5488    
  2.8907      3.6053      4.8828      7.0018      10.320      15.336      22.739      33.346      47.693      63.341    
  75.534      79.895      74.009      58.976      40.106      25.327      21.234      29.169      44.413      59.228    
  67.288      66.318      57.277      46.556      35.379      26.263      19.374      14.282      10.559      7.8635    
  5.9438      4.6027      3.6705      3.0330      2.6525      2.5318      2.6775      3.1272      4.0011      5.5079    
  7.9241      11.616      17.088      24.976      35.944      50.079      64.502      75.080      78.578      73.959    
  63.300      51.495      44.138      44.413      51.180      59.822      65.175      64.282      55.028      45.570    
  35.509      26.995      20.356      15.306      11.524      8.7247      6.6765      5.1972      4.1364      3.3812    
  2.8729      2.5995      2.5671      2.7962      3.3527      4.3730      6.0618      8.6915      12.623      18.315    
  26.279      36.973      50.175      63.162      72.620      76.375      74.277      68.439      62.389      59.228    
  59.822      62.386      63.787      61.531      51.460      43.049      34.271      26.699      20.613      15.844    
  12.176      9.3934      7.3052      5.7513      4.6005      3.7507      3.1375      2.7367      2.5503      2.5929    
  2.8991      3.5481      4.6777      6.4859      9.2315      13.235      18.863      26.476      36.318      48.059    
  59.482      68.061      72.379      72.584      70.208      67.288      65.175      63.786      61.854      57.941    
  46.731      39.337      31.933      25.486      20.152      15.853      12.453      9.8051      7.7681      6.2117    
  5.0229      4.1123      3.4206      2.9206      2.6093      2.4964      2.6027      2.9722      3.6889      4.8854    
  6.7441      9.4910      13.382      18.677      25.582      34.151      44.047      53.720      61.282      65.728    
  67.127      66.320      64.282      61.531      57.941      53.073      40.966      35.378      29.999      25.198    
  21.060      17.568      14.660      12.256      10.275      8.6363      7.2651      6.1026      5.1165      4.3005    
  3.6655      3.2282      3.0075      3.0289      3.3360      4.0022      5.1394      6.8976      9.4499      12.969    
  17.598      23.395      30.262      37.829      45.259      51.242      54.976      56.361      55.764      53.664    
  50.391      46.103      34.306      30.151      26.140      22.468      19.223      16.421      14.032      12.010    
  10.302      8.8464      7.5875      6.4788      5.4967      4.6411      3.9287      3.3805      3.0162      2.8560    
  2.9260      3.2666      3.9426      5.0495      6.7069      9.0389      12.147      16.083      20.810      26.151    
  31.738      37.009      41.261      43.872      44.658      43.774      41.524      38.246      27.959      25.096    
  22.220      19.508      17.055      14.892      13.014      11.395      9.9977      8.7752      7.6816      6.6807    
  5.7556      4.9109      4.1673      3.5509      3.0851      2.7896      2.6839      2.7917      3.1478      3.8065    
  4.8437      6.3470      8.3947      11.031      14.245      17.944      21.929      25.879      29.379      32.006    
  33.447      33.587      32.533      30.545      22.374      20.506      18.521      16.579      14.777      13.160    
  11.736      10.495      9.4087      8.4374      7.5400      6.6852      5.8603      5.0728      4.3448      3.7047    
  3.1795      2.7919      2.5602      2.5013      2.6353      2.9908      3.6092      4.5454      5.8587      7.5940    
  9.7575      12.298      15.098      17.970      20.667      22.910      24.445      25.113      24.897      23.916    
  17.671      16.528      15.214      13.863      12.570      11.388      10.339      9.4206      8.6132      7.8812    
  7.1857      6.4964      5.8011      5.1070      4.4352      3.8135      3.2705      2.8315      2.5165      2.3414    
  2.3203      2.4695      2.8100      3.3705      4.1878      5.2998      6.7263      8.4489      10.399      12.463    
  14.488      16.295      17.703      18.567      18.820      18.485      13.830      13.196      12.371      11.463    
  10.555      9.7052      8.9462      8.2853      7.7071      7.1805      6.6696      6.1450      5.5922      5.0142    
  4.4287      3.8609      3.3379      2.8852      2.5251      2.2748      2.1472      2.1537      2.3075      2.6232    
  3.1180      3.8118      4.7243      5.8607      7.1960      8.6651      10.167      11.579      12.776      13.647    
  14.117      14.166      10.769      10.479      10.003      9.4189      8.7982      8.1975      7.6553      7.1867    
  6.7827      6.4173      6.0590      5.6812      5.2675      4.8148      4.3341      3.8456      3.3728      2.9397    
  2.5686      2.2783      2.0823      1.9907      2.0142      2.1634      2.4469      2.8713      3.4448      4.1761    
  5.0641      6.0824      7.1729      8.2523      9.2292      10.020      10.558      10.808      8.3825      8.3134    
  8.0791      7.7301      7.3222      6.9068      6.5232      6.1918      5.9114      5.6630      5.4213      5.1635    
  4.8737      4.5436      4.1754      3.7814      3.3806      2.9938      2.6411      2.3410      2.1081      1.9531    
  1.8850      1.9129      2.0455      2.2890      2.6460      3.1161      3.6967      4.3788      5.1403      5.9380    
  6.7103      7.3894      7.9168      8.2533      6.5570      6.6215      6.5484      6.3662      6.1151      5.8376    
  5.5694      5.3337      5.1363      4.9676      4.8101      4.6464      4.4614      4.2434      3.9866      3.6949    
  3.3808      3.0604      2.7499      2.4652      2.2212      2.0302      1.9009      1.8409      1.8591      1.9650    
  2.1648      2.4571      2.8341      3.2865      3.8048      4.3730      4.9584      5.5134      5.9881      6.3437    
  5.1788      5.3160      5.3447      5.2779      5.1411      4.9661      4.7836      4.6161      4.4750      4.3600    
  4.2633      4.1733      4.0762      3.9579      3.8073      3.6211      3.4042      3.1659      2.9168      2.6691    
  2.4355      2.2290      2.0605      1.9393      1.8730      1.8690      1.9351      2.0784      2.3004      2.5937    
  2.9461      3.3436      3.7697      4.1994      4.5993      4.9348      4.1429      4.3113      4.3991      4.4086    
  4.3533      4.2552      4.1386      4.0242      3.9263      3.8524      3.8036      3.7745      3.7533      3.7251    
  3.6761      3.5981      3.4885      3.3482      3.1801      2.9900      2.7869      2.5820      2.3883      2.2192    
  2.0852      1.9925      1.9467      1.9576      2.0373      2.1904      2.4082      2.6746      2.9740      3.2924    
  3.6106      3.9028      3.3639      3.5352      3.6514      3.7074      3.7084      3.6678      3.6040      3.5350    
  3.4770      3.4424      3.4385      3.4650      3.5136      3.5716      3.6252      3.6630      3.6759      3.6554    
  3.5940      3.4878      3.3389      3.1549      2.9477      2.7326      2.5271      2.3466      2.2012      2.0979    
  2.0460      2.0556      2.1318      2.2696      2.4565      2.6772      2.9150      3.1508      2.7820      2.9353    
  3.0566      3.1366      3.1739      3.1758      3.1551      3.1275      3.1098      3.1173      3.1607      3.2438    
  3.3635      3.5118      3.6781      3.8499      4.0120      4.1454      4.2295      4.2467      4.1876      4.0522    
  3.8480      3.5894      3.2994      3.0070      2.7382      2.5081      2.3230      2.1891      2.1163      2.1123    
  2.1748      2.2909      2.4426      2.6121      2.3629      2.4797      2.5868      2.6719      2.7292      2.7605    
  2.7747      2.7853      2.8083      2.8600      2.9542      3.0995      3.2986      3.5505      3.8509      4.1887    
  4.5432      4.8835      5.1729      5.3760      5.4646      5.4231      5.2501      4.9585      4.5748      4.1372    
  3.6896      3.2700      2.9033      2.6012      2.3692      2.2114      2.1292      2.1175      2.1641      2.2519    
  2.0932      2.1543      2.2281      2.3006      2.3622      2.4107      2.4515      2.4958      2.5580      2.6548    
  2.8030      3.0173      3.3087      3.6857      4.1523      4.7019      5.3100      5.9338      6.5182      7.0037    
  7.3339      7.4652      7.3764      7.0741      6.5896      5.9720      5.2819      4.5849      3.9394      3.3840    
  2.9325      2.5824      2.3275      2.1622      2.0784      2.0616      1.9749      1.9574      1.9774      2.0185    
  2.0683      2.1211      2.1785      2.2493      2.3467      2.4880      2.6928      2.9829      3.3806      3.9075    
  4.5793      5.3966      6.3359      7.3460      8.3521      9.2631      9.9821      10.421      10.518      10.257    
  9.6703      8.8272      7.8192      6.7445      5.6962      4.7483      3.9456      3.3013      2.8069      2.4456    
  2.1990      2.0487      2.0202      1.8967      1.8393      1.8282      1.8484      1.8907      1.9529      2.0406    
  2.1661      2.3480      2.6096      2.9806      3.4966      4.1957      5.1105      6.2554      7.6157      9.1393    
  10.734      12.272      13.599      14.560      15.026      14.927      14.276      13.161      11.726      10.127    
  8.5084      6.9883      5.6524      4.5479      3.6819      3.0313      2.5599      2.2327      2.2544      1.9880    
  1.8244      1.7375      1.7076      1.7220      1.7747      1.8678      2.0118      2.2264      2.5402      2.9921    
  3.6319      4.5176      5.7047      7.2322      9.1065      11.287      13.674      16.101      18.344      20.150    
  21.283      21.580      20.994      19.610      17.621      15.280      12.834      10.485      8.3753      6.5881    
  5.1523      4.0513      3.2385      2.6570      2.7265      2.2603      1.9512      1.7588      1.6549      1.6209    
  1.6469      1.7315      1.8822      2.1187      2.4746      2.9991      3.7579      4.8310      6.3042      8.2529    
  10.722      13.701      17.101      20.728      24.281      27.377      29.627      30.714      30.472      28.931    
  26.314      22.987      19.361      15.798      12.552      9.7634      7.4843      5.7041      4.3704      3.4056    
  3.5194      2.7629      2.2494      1.9118      1.7041      1.5978      1.5767      1.6352      1.7778      2.0228    
  2.4066      2.9875      3.8474      5.0917      6.8420      9.2213      12.331      16.219      20.836      25.985    
  31.292      36.220      40.114      42.483      43.060      41.754      38.668      34.197      29.009      23.724    
  18.811      14.544      11.027      8.2521      6.1487      4.6107      4.7541      3.5719      2.7650      2.2249    
  1.8752      1.6677      1.5758      1.5878      1.7041      1.9403      2.3335      2.9478      3.8799      5.2603    
  7.2502      10.029      13.772      18.613      24.581      31.518      38.947      45.852      51.364      55.055    
  56.767      56.409      53.878      49.180      42.666      35.213      27.974      21.573      16.254      12.039    
  8.8230      6.4508      6.5869      4.7931      3.5641      2.7380      2.1933      1.8491      1.6590      1.6014    
  1.6709      1.8779      2.2574      2.8771      3.8438      5.3090      7.4718      10.572      14.870      20.610    
  27.941      36.788      46.250      54.760      61.335      65.735      68.183      68.908      67.819      64.521    
  58.672      50.459      40.886      31.614      23.765      17.499      12.701      9.1459      9.1987      6.5568    
  4.7352      3.5053      2.6907      2.1633      1.8427      1.6892      1.6891      1.8461      2.1877      2.7805    
  3.7380      5.2265      7.4737      10.774      15.476      21.946      30.492      41.109      52.304      61.942    
  68.766      72.710      74.622      75.533      75.864      75.087      72.067      65.866      56.497      45.210    
  34.178      25.117      18.135      12.946      12.774      9.0008      6.3807      4.5968      3.4098      2.6365    
  2.1458      1.8650      1.7691      1.8551      2.1375      2.6717      3.5733      5.0196      7.2538      10.605    
  15.498      22.425      31.865      43.921      56.608      67.086      73.520      75.739      75.224      74.265    
  74.589      76.243      77.539      76.108      70.327      60.249      47.645      35.324      25.470      18.107    
  17.472      12.245      8.5970      6.0902      4.4052      3.3011      2.5891      2.1468      1.9251      1.9149    
  2.1181      2.5685      3.3725      4.7129      6.8388      10.089      14.933      21.970      31.845      44.881    
  58.912      70.322      76.358      76.218      71.576      66.056      63.474      65.623      71.139      76.331    
  77.373      72.275      61.607      47.991      34.944      24.835      23.371      16.360      11.449      8.0500    
  5.7339      4.1951      3.1951      2.5543      2.1774      2.0400      2.1391      2.4881      3.1659      4.3457    
  6.2769      9.2915      13.864      20.649      30.424      43.824      59.026      71.773      78.211      76.357    
  67.244      55.183      46.242      45.133      52.387      63.994      73.852      77.104      72.157      60.671    
  46.312      33.189      30.399      21.332      14.945      10.501      7.4347      5.3563      3.9887      3.1046    
  2.5455      2.2500      2.2148      2.4454      2.9826      3.9643      5.6318      8.3076      12.435      18.657    
  27.816      40.811      56.759      71.233      79.385      77.774      65.961      47.681      30.326      21.811    
  26.168      41.027      59.083      72.379      76.179      70.213      57.583      42.887      38.216      27.007    
  19.010      13.409      9.5049      6.8074      4.9953      3.8117      3.0407      2.5644      2.3665      2.4563    
  2.8435      3.6123      4.9755      7.2433      10.814      16.259      24.401      36.242      52.062      68.195    
  79.205      80.359      69.351      48.106      23.555      5.6139      2.2819      14.864      37.117      59.098    
  72.623      74.494      66.335      52.549      46.011      33.025      23.454      16.663      11.885      8.5348    
  6.2278      4.6870      3.6671      2.9954      2.6175      2.5402      2.7631      3.3216      4.3747      6.2021    
  9.1584      13.725      20.626      30.833      45.299      62.250      76.402      82.238      75.815      56.690    
  29.638      4.2923     -8.7554     -3.8155      16.349      42.271      63.408      73.296      71.149      60.348    
  52.473      38.813      27.942      20.068      14.457      10.472      7.6653      5.7323      4.4273      3.5465    
  2.9818      2.7171      2.7566      3.1116      3.8757      5.2689      7.6025      11.279      16.886      25.267    
  37.434      53.613      69.970      80.900      81.454      69.120      45.769      18.629     -1.7226     -6.5322    
  5.9386      29.319      53.116      68.548      72.075      65.244      56.736      43.613      32.012      23.339    
  17.039      12.501      9.2390      6.9237      5.3174      4.2131      3.4594      3.0011      2.8431      2.9954    
  3.4991      4.4969      6.2444      9.0810      13.466      20.063      29.742      43.414      59.981      74.693    
  82.346      79.125      64.335      41.879      19.969      7.8198      10.607      26.284      46.921      63.503    
  70.464      67.194      58.578      46.709      35.160      26.131      19.404      14.460      10.838      8.2006    
  6.3132      4.9808      4.0375      3.3930      3.0376      2.9844      3.2485      3.9053      5.1398      7.2292    
  10.530      15.534      22.920      33.500      47.863      63.782      76.556      81.873      77.345      63.908    
  46.423      32.250      27.661      34.169      47.639      60.957      68.134      66.879      58.222      47.793    