Se                                      
   1.00000000000000     
     4.524640    0.000000    0.000000
    -2.262320    3.918453    0.000000
     0.000000    0.000000    5.049780
   Se
     3
Direct
  0.219030  0.000000  0.333333
  0.000000  0.219030  0.666667
  0.780970  0.780970  0.000000
 
   36   36   40
 0.41038112522E+02 0.34836215108E+02 0.28863623452E+02 0.23577338997E+02 0.19081528264E+02
 0.15360048177E+02 0.12338895351E+02 0.99255156684E+01 0.80225603560E+01 0.65317000212E+01
 0.53602162524E+01 0.44316412703E+01 0.36948282878E+01 0.31254734534E+01 0.27192844099E+01
 0.24829449731E+01 0.24306604072E+01 0.25887918800E+01 0.30056253228E+01 0.37620261751E+01
 0.49784754377E+01 0.68131015245E+01 0.94478510048E+01 0.13065524706E+02 0.17819150573E+02
 0.23782590722E+02 0.30865311594E+02 0.38701870139E+02 0.46390735814E+02 0.52578014313E+02
 0.56452902307E+02 0.57903090879E+02 0.57276919484E+02 0.55026973325E+02 0.51460070295E+02
 0.46731257146E+02 0.34836952195E+02 0.30056535606E+02 0.25443543742E+02 0.21244079478E+02
 0.17575241081E+02 0.14460842743E+02 0.11872374928E+02 0.97573391843E+01 0.80511499563E+01
 0.66819474765E+01 0.55772601644E+01 0.46743282509E+01 0.39299535287E+01 0.33238879851E+01
 0.28536885101E+01 0.25261276518E+01 0.23525998444E+01 0.23506968657E+01 0.25491926226E+01
 0.29948501108E+01 0.37607069185E+01 0.49510101883E+01 0.66946239966E+01 0.91249950030E+01
 0.12353836530E+02 0.16443065267E+02 0.21366771687E+02 0.26954208789E+02 0.32831624746E+02
 0.38414526709E+02 0.42932021070E+02 0.45717868432E+02 0.46554779652E+02 0.45568765096E+02
 0.43048644202E+02 0.39337624113E+02 0.28864082043E+02 0.25443606993E+02 0.21994513625E+02
 0.18745269255E+02 0.15825243993E+02 0.13286248703E+02 0.11131870634E+02 0.93382196009E+01
 0.78636620868E+01 0.66549386793E+01 0.56553207196E+01 0.48146077296E+01 0.40977706822E+01
 0.34886238930E+01 0.29866903796E+01 0.25999787129E+01 0.23395979000E+01 0.22193551383E+01
 0.22584019029E+01 0.24847527922E+01 0.29405309904E+01 0.36884508391E+01 0.48134670186E+01
 0.64126961086E+01 0.85742098685E+01 0.11352327716E+02 0.14744137144E+02 0.18663478888E+02
 0.22910060211E+02 0.27149385848E+02 0.30936139243E+02 0.33801182559E+02 0.35378213183E+02
 0.35508394201E+02 0.34270613064E+02 0.31932975523E+02 0.23577368571E+02 0.21243536574E+02
 0.18744774608E+02 0.16286900423E+02 0.14005577839E+02 0.11973079810E+02 0.10216276248E+02
 0.87319405103E+01 0.74948849593E+01 0.64642951446E+01 0.55934416183E+01 0.48411671155E+01
 0.41799753541E+01 0.35979374252E+01 0.30956173661E+01 0.26811196042E+01 0.23659905411E+01
 0.21633029828E+01 0.20879596823E+01 0.21586477864E+01 0.24008534286E+01 0.28505223097E+01
 0.35574823348E+01 0.45855472927E+01 0.60039423540E+01 0.78673808746E+01 0.10190509696E+02
 0.12927337302E+02 0.15960142266E+02 0.19094501812E+02 0.22062735898E+02 0.24551205074E+02
 0.26262470570E+02 0.26995008092E+02 0.26700158139E+02 0.25486731341E+02 0.19081602883E+02
 0.17574454435E+02 0.15824483062E+02 0.14005435591E+02 0.12249125791E+02 0.10640855732E+02
 0.92256433794E+01 0.80162092298E+01 0.69992942477E+01 0.61430357663E+01 0.54078858382E+01
 0.47586803006E+01 0.41726995094E+01 0.36409710499E+01 0.31647546260E+01 0.27513618603E+01
 0.24115861758E+01 0.21581835822E+01 0.20047636085E+01 0.19659750921E+01 0.20592746960E+01
 0.23067642680E+01 0.27365856549E+01 0.33851748093E+01 0.42982926357E+01 0.55233650733E+01
 0.70895373617E+01 0.89845044137E+01 0.11141916248E+02 0.13442111932E+02 0.15718431779E+02
 0.17767621665E+02 0.19374663513E+02 0.20357153817E+02 0.20613993258E+02 0.20152675649E+02
 0.15359852145E+02 0.14460284143E+02 0.13285812446E+02 0.11973363147E+02 0.10641435623E+02
 0.93799402810E+01 0.82471421661E+01 0.72687135023E+01 0.64407169333E+01 0.57388143904E+01
 0.51306609155E+01 0.45864881873E+01 0.40857670944E+01 0.36196705051E+01 0.31891585163E+01
 0.28005991541E+01 0.24628410906E+01 0.21869647795E+01 0.19860303721E+01 0.18735428741E+01
 0.18630742727E+01 0.19701307904E+01 0.22134611918E+01 0.26144438523E+01 0.31973045747E+01
 0.39904006564E+01 0.50220439557E+01 0.63057471548E+01 0.78206980511E+01 0.94999100150E+01
 0.11232623177E+02 0.12877777181E+02 0.14282934584E+02 0.15306768585E+02 0.15844657018E+02
 0.15852654929E+02 0.12337983065E+02 0.11872096138E+02 0.11131883456E+02 0.10216861148E+02
 0.92266192097E+01 0.82476504028E+01 0.73446354015E+01 0.65530614707E+01 0.58779620404E+01
 0.53028193129E+01 0.48029329553E+01 0.43546563367E+01 0.39395363056E+01 0.35469899898E+01
 0.31752822301E+01 0.28287940446E+01 0.25143154495E+01 0.22404715263E+01 0.20186840800E+01
 0.18617576699E+01 0.17816193212E+01 0.17902704582E+01 0.19022635723E+01 0.21337382844E+01
 0.24991619689E+01 0.30117580590E+01 0.36873135715E+01 0.45425307052E+01 0.55822316285E+01
 0.67818723407E+01 0.80782520023E+01 0.93752954346E+01 0.10560758334E+02 0.11524697537E+02
 0.12174904452E+02 0.12451018185E+02 0.99247303359E+01 0.97577534638E+01 0.93386550623E+01
 0.87322337055E+01 0.80167274955E+01 0.72689551377E+01 0.65526803149E+01 0.59092032017E+01
 0.53529381417E+01 0.48767442954E+01 0.44639059119E+01 0.40971633557E+01 0.37612126505E+01
 0.34438081243E+01 0.31385621365E+01 0.28459490470E+01 0.25706239221E+01 0.23189593958E+01
 0.20993835861E+01 0.19226749019E+01 0.18001222001E+01 0.17422177970E+01 0.17599640664E+01
 0.18662803248E+01 0.20748013907E+01 0.23973834260E+01 0.28429757710E+01 0.34179345962E+01
 0.41253040486E+01 0.49599939569E+01 0.58991151728E+01 0.68927398187E+01 0.78644475561E+01
 0.87251198723E+01 0.93920343836E+01 0.98030697258E+01 0.80229722239E+01 0.80527862329E+01
 0.78647078714E+01 0.74946450501E+01 0.69988455877E+01 0.64404864902E+01 0.58772071492E+01
 0.53519081947E+01 0.48872659042E+01 0.44868925456E+01 0.41431993514E+01 0.38451282445E+01
 0.35803952505E+01 0.33357738744E+01 0.31005268997E+01 0.28703917119E+01 0.26469008851E+01
 0.24337482297E+01 0.22357226681E+01 0.20602954169E+01 0.19175379025E+01 0.18176703102E+01
 0.17698424432E+01 0.17837958635E+01 0.18718758705E+01 0.20481975691E+01 0.23244330641E+01
 0.27053144906E+01 0.31884484833E+01 0.37683869494E+01 0.44373099042E+01 0.51762424199E+01
 0.59438133592E+01 0.66767315443E+01 0.73046882604E+01 0.77672979405E+01 0.65327298348E+01
 0.66840001099E+01 0.66562386182E+01 0.64636567395E+01 0.61417642599E+01 0.57384857530E+01
 0.53028563481E+01 0.48760131303E+01 0.44859979549E+01 0.41467158255E+01 0.38607681729E+01
 0.36233202703E+01 0.34241661173E+01 0.32495083214E+01 0.30862034304E+01 0.29262170428E+01
 0.27667837963E+01 0.26073215942E+01 0.24483201062E+01 0.22931847487E+01 0.21491492580E+01
 0.20256860320E+01 0.19327772217E+01 0.18803379644E+01 0.18781151159E+01 0.19364268072E+01
 0.20675070390E+01 0.22840146230E+01 0.25932381840E+01 0.29925579387E+01 0.34713969532E+01
 0.40149954530E+01 0.46018317980E+01 0.51968932684E+01 0.57513078011E+01 0.62118163874E+01
 0.53605555972E+01 0.55780000752E+01 0.56557259619E+01 0.55924763254E+01 0.54063252834E+01
 0.51303940833E+01 0.48041112846E+01 0.44648103492E+01 0.41430036341E+01 0.38603700894E+01
 0.36285428781E+01 0.34486921901E+01 0.33129477881E+01 0.32081393640E+01 0.31207831390E+01
 0.30405154761E+01 0.29599048790E+01 0.28724682246E+01 0.27726815281E+01 0.26583207967E+01
 0.25320134280E+01 0.24008388070E+01 0.22755300874E+01 0.21689955267E+01 0.20928553714E+01
 0.20552326788E+01 0.20644813501E+01 0.21349065879E+01 0.22842407432E+01 0.25222765696E+01
 0.28434978487E+01 0.32319699380E+01 0.36696661925E+01 0.41359431401E+01 0.46006827711E+01
 0.50231995439E+01 0.44313799554E+01 0.46734505563E+01 0.48136406276E+01 0.48400822621E+01
 0.47576390886E+01 0.45864183800E+01 0.43559498602E+01 0.40987251774E+01 0.38457896378E+01
 0.36233077809E+01 0.34487360683E+01 0.33282859492E+01 0.32580107098E+01 0.32279155880E+01
 0.32262054480E+01 0.32412985506E+01 0.32612373917E+01 0.32724328671E+01 0.32606903955E+01
 0.32150344534E+01 0.31311214822E+01 0.30115969550E+01 0.28649911348E+01 0.27052877797E+01
 0.25502921185E+01 0.24169466286E+01 0.23176473896E+01 0.22626117536E+01 0.22649226031E+01
 0.23396400872E+01 0.24960259255E+01 0.27315057591E+01 0.30329834445E+01 0.33810713966E+01
 0.37512132147E+01 0.41128645710E+01 0.36949168369E+01 0.39289509973E+01 0.40965297323E+01
 0.41794081068E+01 0.41728935323E+01 0.40863954815E+01 0.39402826961E+01 0.37616491355E+01
 0.35802520246E+01 0.34238460633E+01 0.33130590104E+01 0.32584017280E+01 0.32613493584E+01
 0.33177306072E+01 0.34199387647E+01 0.35566360693E+01 0.37112721990E+01 0.38615465135E+01
 0.39817148664E+01 0.40481034172E+01 0.40449319229E+01 0.39664755157E+01 0.38159407139E+01
 0.36054398394E+01 0.33575832236E+01 0.31027730355E+01 0.28695273788E+01 0.26758337086E+01
 0.25309711190E+01 0.24446466151E+01 0.24307559270E+01 0.25004284094E+01 0.26527307844E+01
 0.28729534555E+01 0.31379836507E+01 0.34214150423E+01 0.31257838464E+01 0.33236933090E+01
 0.34882864904E+01 0.35983057508E+01 0.36422154308E+01 0.36210051599E+01 0.35474731788E+01
 0.34431031582E+01 0.33343179283E+01 0.32482317434E+01 0.32077926774E+01 0.32283864883E+01
 0.33182156695E+01 0.34808640000E+01 0.37155106725E+01 0.40132374434E+01 0.43531237408E+01
 0.47023739705E+01 0.50208217129E+01 0.52675900727E+01 0.54080987760E+01 0.54199887737E+01
 0.52964660801E+01 0.50470748338E+01 0.46972969479E+01 0.42864058247E+01 0.38606415812E+01
 0.34619799232E+01 0.31191259789E+01 0.28472980739E+01 0.26548991099E+01 0.25485720989E+01
 0.25316371256E+01 0.25992750520E+01 0.27365567804E+01 0.29208780515E+01 0.27190495415E+01
 0.28536457813E+01 0.29869630986E+01 0.30964166285E+01 0.31659366479E+01 0.31900932751E+01
 0.31753620345E+01 0.31377334909E+01 0.30992857430E+01 0.30852131677E+01 0.31204705228E+01
 0.32265019616E+01 0.34203678794E+01 0.37156792005E+01 0.41206716558E+01 0.46312776896E+01
 0.52241871101E+01 0.58562863954E+01 0.64703121924E+01 0.70020648977E+01 0.73880644351E+01
 0.75762332794E+01 0.75381197111E+01 0.72755741353E+01 0.68180592969E+01 0.62152983383E+01
 0.55309222527E+01 0.48351982834E+01 0.41922044095E+01 0.36452337375E+01 0.32115078804E+01
 0.28906210372E+01 0.26774057911E+01 0.25668602375E+01 0.25498969639E+01 0.26088556300E+01
 0.24824853176E+01 0.25257470643E+01 0.26000067931E+01 0.26815452927E+01 0.27516822282E+01
 0.28002593838E+01 0.28278474425E+01 0.28451108089E+01 0.28703311898E+01 0.29269151219E+01
 0.30413964713E+01 0.32418383612E+01 0.35567140597E+01 0.40130448997E+01 0.46310919292E+01
 0.54150857939E+01 0.63441973788E+01 0.73689644093E+01 0.84139505855E+01 0.93839730408E+01
 0.10173701563E+02 0.10683751942E+02 0.10842726197E+02 0.10626324794E+02 0.10062743761E+02
 0.92225295982E+01 0.82013000477E+01 0.71038413270E+01 0.60302857121E+01 0.50617019741E+01
 0.42479918185E+01 0.36056576318E+01 0.31275110307E+01 0.27963525258E+01 0.25928739575E+01
 0.24961935129E+01 0.24308227328E+01 0.23524939632E+01 0.23394729857E+01 0.23659927399E+01
 0.24113708996E+01 0.24619181159E+01 0.25128610857E+01 0.25696456227E+01 0.26473143618E+01
 0.27684100187E+01 0.29616033631E+01 0.32620073957E+01 0.37110429929E+01 0.43525114801E+01
 0.52237594806E+01 0.63440843537E+01 0.77035976561E+01 0.92545661571E+01 0.10906506393E+02
 0.12527410615E+02 0.13954635314E+02 0.15017871008E+02 0.15572625058E+02 0.15536292937E+02
 0.14912704864E+02 0.13791486152E+02 0.12320615987E+02 0.10667218355E+02 0.89865712284E+01
 0.74067472116E+01 0.60213500384E+01 0.48829874097E+01 0.40013303917E+01 0.33528981882E+01
 0.28994593227E+01 0.26031024314E+01 0.25892390870E+01 0.23511113042E+01 0.22195721785E+01
 0.21633509314E+01 0.21580766788E+01 0.21866121621E+01 0.22399492376E+01 0.23187011230E+01
 0.24341763070E+01 0.26082683458E+01 0.28731995556E+01 0.32723699291E+01 0.38608383565E+01
 0.47016574298E+01 0.58560049611E+01 0.73690553265E+01 0.92547115624E+01 0.11479980930E+02
 0.13949461121E+02 0.16495418781E+02 0.18883800684E+02 0.20843592790E+02 0.22117017475E+02
 0.22518384736E+02 0.21983741013E+02 0.20591883849E+02 0.18543852184E+02 0.16106501017E+02
 0.13546342869E+02 0.11082810363E+02 0.88708241519E+01 0.70014807029E+01 0.55076031693E+01
 0.43727971438E+01 0.35480171917E+01 0.29724509178E+01 0.30054713207E+01 0.25493390461E+01
 0.22586699348E+01 0.20881017570E+01 0.20047605052E+01 0.19861562222E+01 0.20192422729E+01
 0.21003457648E+01 0.22366131760E+01 0.24485051653E+01 0.27718812988E+01 0.32592800953E+01
 0.39804876297E+01 0.50203717926E+01 0.64706104880E+01 0.84145030068E+01 0.10906863447E+02
 0.13949538127E+02 0.17461883211E+02 0.21252700768E+02 0.25011667296E+02 0.28338683286E+02
 0.30812778141E+02 0.32082070032E+02 0.31948376200E+02 0.30422516093E+02 0.27730028839E+02
 0.24256181388E+02 0.20443683796E+02 0.16685535202E+02 0.13259520596E+02 0.10319859305E+02
 0.79237766951E+01 0.60614739463E+01 0.46773298222E+01 0.36884836718E+01 0.37615950181E+01
 0.29944349836E+01 0.24845701175E+01 0.21585904157E+01 0.19658149581E+01 0.18733974253E+01
 0.18620884111E+01 0.19236499913E+01 0.20613143134E+01 0.22933100791E+01 0.26572438274E+01
 0.32134769897E+01 0.40471773310E+01 0.52678053119E+01 0.70029984156E+01 0.93848156369E+01
 0.12527710487E+02 0.16495303434E+02 0.21252541261E+02 0.26611313434E+02 0.32196420788E+02
 0.37443278453E+02 0.41651633411E+02 0.44303046326E+02 0.45096800943E+02 0.43899400094E+02
 0.40781191766E+02 0.36129108101E+02 0.30662106706E+02 0.25068332596E+02 0.19859071585E+02
 0.15336184822E+02 0.11616070420E+02 0.86916557396E+01 0.64860050611E+01 0.48852184719E+01
 0.49786596657E+01 0.37605327146E+01 0.29402369023E+01 0.24006901989E+01 0.20591524143E+01
 0.18627847621E+01 0.17812617752E+01 0.17999765330E+01 0.19175612980E+01 0.21489609325E+01
 0.25314919401E+01 0.31307398879E+01 0.40452786371E+01 0.54091696055E+01 0.73892048497E+01
 0.10174230710E+02 0.13954425326E+02 0.18883264894E+02 0.25011292509E+02 0.32196349067E+02
 0.39942191300E+02 0.47180989387E+02 0.53038758202E+02 0.57076817679E+02 0.59115733838E+02
 0.59020715491E+02 0.56627837851E+02 0.51884896577E+02 0.45121875221E+02 0.37251226089E+02
 0.29549644015E+02 0.22738443518E+02 0.17088298845E+02 0.12623658715E+02 0.92320286391E+01
 0.67445510736E+01 0.68135511309E+01 0.49513988634E+01 0.36885661288E+01 0.28505618811E+01
 0.23069413716E+01 0.19703041491E+01 0.17901554193E+01 0.17417222858E+01 0.18168942963E+01
 0.20248623729E+01 0.24004174673E+01 0.30120638488E+01 0.39677985753E+01 0.54214124240E+01
 0.75768826697E+01 0.10683392160E+02 0.15016970388E+02 0.20842793110E+02 0.28338346180E+02
 0.37443375311E+02 0.47181205515E+02 0.55970497851E+02 0.62837421398E+02 0.67559008352E+02
 0.70371624110E+02 0.71491107793E+02 0.70762361683E+02 0.67685576260E+02 0.61820910102E+02
 0.53317984638E+02 0.43227677931E+02 0.33345553612E+02 0.24976084701E+02 0.18315050042E+02
 0.13235369677E+02 0.94912298687E+01 0.94475839299E+01 0.66948236362E+01 0.48136925124E+01
 0.35575697134E+01 0.27367723612E+01 0.22138754893E+01 0.19027081349E+01 0.17601697623E+01
 0.17696567692E+01 0.19322526673E+01 0.22750993035E+01 0.28652723637E+01 0.38169540853E+01
 0.52972907767E+01 0.75378214505E+01 0.10841472509E+02 0.15571434704E+02 0.22116575328E+02
 0.30812967493E+02 0.41652060284E+02 0.53039171358E+02 0.62837653371E+02 0.69804496660E+02
 0.73916195840E+02 0.76090825258E+02 0.77412212391E+02 0.78281062276E+02 0.78048525441E+02
 0.75402093536E+02 0.69255146307E+02 0.59576252252E+02 0.47694153490E+02 0.35944348349E+02
 0.26278870147E+02 0.18862807637E+02 0.13381575296E+02 0.13064819901E+02 0.91247644824E+01
 0.64126512023E+01 0.45853596773E+01 0.33849762580E+01 0.26144627888E+01 0.21339251865E+01
 0.18665734301E+01 0.17842673424E+01 0.18808565413E+01 0.21692628166E+01 0.27053447187E+01
 0.36055262560E+01 0.50469162493E+01 0.72746166045E+01 0.10624871191E+02 0.15535521817E+02
 0.22518876097E+02 0.32083096719E+02 0.44303689997E+02 0.57077009332E+02 0.67559085990E+02
 0.73916228797E+02 0.76025675325E+02 0.75491692393E+02 0.74764776866E+02 0.75653987617E+02
 0.78124576753E+02 0.80252900203E+02 0.79394993172E+02 0.73747437265E+02 0.63342484234E+02
 0.50079540813E+02 0.36973113062E+02 0.26475624007E+02 0.18675681572E+02 0.17819111324E+02
 0.12353981836E+02 0.85743659610E+01 0.60037427008E+01 0.42978757843E+01 0.31970529672E+01
 0.24989517212E+01 0.20743840691E+01 0.18716757884E+01 0.18786664803E+01 0.20937471733E+01
 0.25506369305E+01 0.33572233847E+01 0.46966594555E+01 0.68172962114E+01 0.10062015083E+02
 0.14912754324E+02 0.21984994540E+02 0.31949885929E+02 0.45097265168E+02 0.59115207378E+02
 0.70371123824E+02 0.76090710841E+02 0.75491622665E+02 0.70393494155E+02 0.64694627210E+02
 0.62461118104E+02 0.65527537788E+02 0.72290834647E+02 0.78663482437E+02 0.80461823330E+02
 0.75534516197E+02 0.64501347446E+02 0.50174559216E+02 0.36317663722E+02 0.25581825505E+02
 0.23783303350E+02 0.16443733887E+02 0.11353017651E+02 0.78676378787E+01 0.55231034116E+01
 0.39903022205E+01 0.30119824342E+01 0.23971255689E+01 0.20472643975E+01 0.19358830929E+01
 0.20556597535E+01 0.24174223153E+01 0.31024508391E+01 0.42858130331E+01 0.62152362225E+01
 0.92229456788E+01 0.13792175583E+02 0.20592978330E+02 0.30423550976E+02 0.43899292284E+02
 0.59019444428E+02 0.71490062082E+02 0.77412161483E+02 0.74764926772E+02 0.64694366669E+02
 0.51852994506E+02 0.42754327205E+02 0.42372179910E+02 0.51103450377E+02 0.64464826078E+02
 0.75801105853E+02 0.79894694803E+02 0.75078032656E+02 0.63160093990E+02 0.48058783390E+02
 0.34151889177E+02 0.30866016830E+02 0.21366842278E+02 0.14744429615E+02 0.10190952036E+02
 0.70894303873E+01 0.50218202048E+01 0.36878962039E+01 0.28438180354E+01 0.23242565917E+01
 0.20665796674E+01 0.20641175439E+01 0.23178634004E+01 0.28692839602E+01 0.38600653998E+01
 0.55311740454E+01 0.82024291538E+01 0.12321485633E+02 0.18543993390E+02 0.27729802243E+02
 0.40780503794E+02 0.56626522990E+02 0.70761383239E+02 0.78281432236E+02 0.75654913290E+02
 0.62461090281E+02 0.42753581716E+02 0.24508066214E+02 0.16176468341E+02 0.21902821140E+02
 0.38889968360E+02 0.59113819187E+02 0.74007965317E+02 0.78576527838E+02 0.72618348260E+02
 0.59481812590E+02 0.44047966473E+02 0.38702378624E+02 0.26953121947E+02 0.18662381086E+02
 0.12927279770E+02 0.89845210912E+01 0.63051386307E+01 0.45423664985E+01 0.34189095241E+01
 0.27062364294E+01 0.22838855179E+01 0.21345411614E+01 0.22627987757E+01 0.26758615848E+01
 0.34614025179E+01 0.48350961344E+01 0.71048141939E+01 0.10667948615E+02 0.16105806488E+02
 0.24254828149E+02 0.36128267640E+02 0.51884506114E+02 0.67685448538E+02 0.78049255715E+02
 0.78126032491E+02 0.65528216324E+02 0.42371392433E+02 0.16175513621E+02 -.23890541162E+01
 -.48779267306E+01 0.98129939823E+01 0.34693013362E+02 0.58975678427E+02 0.73959357509E+02
 0.76375153026E+02 0.68062245735E+02 0.53721396477E+02 0.46391141914E+02 0.32830322456E+02
 0.22908248591E+02 0.15959676198E+02 0.11142427821E+02 0.78204869454E+01 0.55813196591E+01
 0.41251293126E+01 0.31891057338E+01 0.25935484427E+01 0.22841279410E+01 0.22652747697E+01
 0.25315397048E+01 0.31189491673E+01 0.41917027115E+01 0.60305624500E+01 0.89870660376E+01
 0.13545609064E+02 0.20442138123E+02 0.30661592116E+02 0.45122760111E+02 0.61821920123E+02
 0.75402711733E+02 0.80253645431E+02 0.72291460089E+02 0.51103147750E+02 0.21901995800E+02
 -.48782043321E+01 -.17914657523E+02 -.11362109789E+02 0.11448046094E+02 0.40106171889E+02
 0.63300951616E+02 0.74278022506E+02 0.72380047950E+02 0.61282856368E+02 0.52577739951E+02
 0.38413906995E+02 0.27148454367E+02 0.19094477001E+02 0.13443311293E+02 0.95008196327E+01
 0.67814733605E+01 0.49592254237E+01 0.37682130133E+01 0.29924705385E+01 0.25218450577E+01
 0.23396253192E+01 0.24453652617E+01 0.28477133359E+01 0.36448220355E+01 0.50613987387E+01
 0.74069893873E+01 0.11082616511E+02 0.16684660578E+02 0.25068272540E+02 0.37252743079E+02
 0.53319561196E+02 0.69255269388E+02 0.79394210300E+02 0.78662932706E+02 0.64464508476E+02
 0.38889696914E+02 0.98132808939E+01 -.11361369989E+02 -.15393860956E+02 -.76921222749E+00
 0.25326169815E+02 0.51496246052E+02 0.68439432170E+02 0.72583656662E+02 0.65727199478E+02
 0.56451654259E+02 0.42931925811E+02 0.30936590574E+02 0.22063498180E+02 0.15719688310E+02
 0.11233793496E+02 0.80785104179E+01 0.58987892811E+01 0.44372309456E+01 0.34713546504E+01
 0.28428809178E+01 0.24953553877E+01 0.24309129044E+01 0.26554432283E+01 0.32114354563E+01
 0.42475325893E+01 0.60213540895E+01 0.88710875968E+01 0.13259452859E+02 0.19859243290E+02
 0.29550780349E+02 0.43228805956E+02 0.59575815069E+02 0.73745724976E+02 0.80460458685E+02
 0.75800673063E+02 0.59113797953E+02 0.34693403595E+02 0.11449120388E+02 -.76821406124E+00
 0.33449174934E+01 0.21233342388E+02 0.44138780398E+02 0.62389808156E+02 0.70207058174E+02
 0.67125352672E+02 0.57902014708E+02 0.45718157363E+02 0.33802293587E+02 0.24552108986E+02
 0.17768037918E+02 0.12877777360E+02 0.93748920466E+01 0.68923798047E+01 0.51765658733E+01
 0.40157039122E+01 0.32320671169E+01 0.27309095788E+01 0.25000930313E+01 0.25488120365E+01
 0.28906998861E+01 0.36052955569E+01 0.48828454152E+01 0.70018323776E+01 0.10320175163E+02
 0.15336305807E+02 0.22738740721E+02 0.33345705024E+02 0.47693317553E+02 0.63340990816E+02
 0.75533798903E+02 0.79895166991E+02 0.74008521628E+02 0.58975669140E+02 0.40106244585E+02
 0.25326710357E+02 0.21233736822E+02 0.29169207533E+02 0.44413484179E+02 0.59228284997E+02
 0.67287754396E+02 0.66318149843E+02 0.57277126915E+02 0.46555810432E+02 0.35379360659E+02
 0.26262752649E+02 0.19374010416E+02 0.14281821240E+02 0.10559488671E+02 0.78634610468E+01
 0.59437890152E+01 0.46027279169E+01 0.36704616879E+01 0.30330328381E+01 0.26525466837E+01
 0.25317645668E+01 0.26775095082E+01 0.31272497646E+01 0.40011436064E+01 0.55078754041E+01
 0.79241024282E+01 0.11616015887E+02 0.17088019066E+02 0.24975652750E+02 0.35943521164E+02
 0.50078761867E+02 0.64501774220E+02 0.75079785695E+02 0.78578045132E+02 0.73959349504E+02
 0.63299967039E+02 0.51495488443E+02 0.44138462960E+02 0.44413267059E+02 0.51180408140E+02
 0.59821890097E+02 0.65174876861E+02 0.64281614541E+02 0.55027680540E+02 0.45570156060E+02
 0.35509354605E+02 0.26994545987E+02 0.20355837116E+02 0.15305778279E+02 0.11524206212E+02
 0.87246811155E+01 0.66764895584E+01 0.51972023305E+01 0.41364173448E+01 0.33811575438E+01
 0.28729022656E+01 0.25995350369E+01 0.25671190208E+01 0.27961704270E+01 0.33526521349E+01
 0.43729997534E+01 0.60617788085E+01 0.86914879592E+01 0.12623199377E+02 0.18314726676E+02
 0.26278612793E+02 0.36972989536E+02 0.50175268466E+02 0.63161787065E+02 0.72619779874E+02
 0.76375118752E+02 0.74276944044E+02 0.68438502977E+02 0.62389322127E+02 0.59227855481E+02
 0.59821555808E+02 0.62385753982E+02 0.63786578955E+02 0.61530922342E+02 0.51459887533E+02
 0.43049137442E+02 0.34271026697E+02 0.26699334200E+02 0.20612527059E+02 0.15844332340E+02
 0.12176091172E+02 0.93933575787E+01 0.73052033620E+01 0.57513304228E+01 0.46005110684E+01
 0.37507036654E+01 0.31374686969E+01 0.27366568230E+01 0.25503408602E+01 0.25928573243E+01
 0.28990943249E+01 0.35480717919E+01 0.46777073134E+01 0.64859175753E+01 0.92315299326E+01
 0.13235290797E+02 0.18863298758E+02 0.26476100539E+02 0.36317980826E+02 0.48059127925E+02
 0.59481753658E+02 0.68061327151E+02 0.72379015978E+02 0.72583638383E+02 0.70207806385E+02
 0.67288124620E+02 0.65174673809E+02 0.63786462560E+02 0.61854086983E+02 0.57940902497E+02
 0.46730513967E+02 0.39336912236E+02 0.31932673867E+02 0.25486082147E+02 0.20151631123E+02
 0.15852634832E+02 0.12452699751E+02 0.98050672062E+01 0.77681448463E+01 0.62117375003E+01
 0.50229336646E+01 0.41123294983E+01 0.34206050557E+01 0.29205595040E+01 0.26092732074E+01
 0.24964442850E+01 0.26027210596E+01 0.29722238861E+01 0.36888566502E+01 0.48854005638E+01
 0.67440998992E+01 0.94910314355E+01 0.13382284578E+02 0.18676545648E+02 0.25581919754E+02
 0.34151244450E+02 0.44046832696E+02 0.53719834083E+02 0.61281657112E+02 0.65727603636E+02
 0.67127134260E+02 0.66319536606E+02 0.64281750632E+02 0.61530783262E+02 0.57941193064E+02
 0.53073387471E+02 0.40965544808E+02 0.35377631648E+02 0.29998771710E+02 0.25197938681E+02
 0.21059641794E+02 0.17568303667E+02 0.14659762701E+02 0.12255581220E+02 0.10274772263E+02
 0.86363338033E+01 0.72650998201E+01 0.61026276260E+01 0.51164888801E+01 0.43005145676E+01
 0.36655012755E+01 0.32282318327E+01 0.30074576162E+01 0.30289082451E+01 0.33360146904E+01
 0.40021584193E+01 0.51394395007E+01 0.68975870401E+01 0.94498785213E+01 0.12969373777E+02
 0.17597587556E+02 0.23395490386E+02 0.30261540176E+02 0.37828681184E+02 0.45258731265E+02
 0.51241923880E+02 0.54976364319E+02 0.56361346908E+02 0.55763991667E+02 0.53663740644E+02
 0.50391311965E+02 0.46103298929E+02 0.34306335007E+02 0.30151081377E+02 0.26140050622E+02
 0.22467696570E+02 0.19223430472E+02 0.16420854190E+02 0.14031875641E+02 0.12010289949E+02
 0.10301522379E+02 0.88464474520E+01 0.75874674667E+01 0.64788394088E+01 0.54966542978E+01
 0.46411245396E+01 0.39286865353E+01 0.33804701111E+01 0.30162284637E+01 0.28560008161E+01
 0.29259622915E+01 0.32665807305E+01 0.39426212163E+01 0.50494539231E+01 0.67068810936E+01
 0.90389150779E+01 0.12147236535E+02 0.16083047309E+02 0.20809992249E+02 0.26151052411E+02
 0.31737533190E+02 0.37009223906E+02 0.41260683966E+02 0.43871736729E+02 0.44657710723E+02
 0.43773592280E+02 0.41524456801E+02 0.38246493043E+02 0.27958664872E+02 0.25095915615E+02
 0.22219825075E+02 0.19508037028E+02 0.17054825271E+02 0.14891906901E+02 0.13013872289E+02
 0.11395204735E+02 0.99976649173E+01 0.87751849324E+01 0.76815751325E+01 0.66807314749E+01
 0.57555737978E+01 0.49108520413E+01 0.41673028567E+01 0.35509143507E+01 0.30850913015E+01
 0.27896235097E+01 0.26839119148E+01 0.27916679558E+01 0.31478005658E+01 0.38065084828E+01
 0.48437181628E+01 0.63470350623E+01 0.83946701829E+01 0.11031286591E+02 0.14245280753E+02
 0.17944495880E+02 0.21929472320E+02 0.25879348102E+02 0.29379387770E+02 0.32006335725E+02
 0.33446536180E+02 0.33587235519E+02 0.32532512169E+02 0.30545401624E+02 0.22374463329E+02
 0.20505838243E+02 0.18521228193E+02 0.16579313428E+02 0.14777182306E+02 0.13159597530E+02
 0.11736310372E+02 0.10495317080E+02 0.94087178491E+01 0.84373566886E+01 0.75399726778E+01
 0.66851963312E+01 0.58603337124E+01 0.50728308220E+01 0.43448438852E+01 0.37046721899E+01
 0.31794846276E+01 0.27918777770E+01 0.25601849180E+01 0.25013294414E+01 0.26353423054E+01
 0.29907629347E+01 0.36091730200E+01 0.45453721730E+01 0.58587145273E+01 0.75940108896E+01
 0.97575405405E+01 0.12298056189E+02 0.15097632474E+02 0.17969936039E+02 0.20667485593E+02
 0.22910400022E+02 0.24444732218E+02 0.25112688006E+02 0.24897170285E+02 0.23915957048E+02
 0.17670747039E+02 0.16527522854E+02 0.15213784612E+02 0.13863319823E+02 0.12570035459E+02
 0.11387743094E+02 0.10338509408E+02 0.94206441512E+01 0.86132187213E+01 0.78812489276E+01
 0.71857231060E+01 0.64964221998E+01 0.58011337796E+01 0.51069856355E+01 0.44351536945E+01
 0.38134866180E+01 0.32705010985E+01 0.28314741554E+01 0.25165467406E+01 0.23414053053E+01
 0.23203008081E+01 0.24694977573E+01 0.28100475520E+01 0.33705283019E+01 0.41878472007E+01
 0.52997678828E+01 0.67263442399E+01 0.84488702242E+01 0.10399356833E+02 0.12463280067E+02
 0.14488076898E+02 0.16295041324E+02 0.17702989568E+02 0.18567286697E+02 0.18819539912E+02
 0.18485331651E+02 0.13830185320E+02 0.13195573234E+02 0.12371240774E+02 0.11462853330E+02
 0.10554853262E+02 0.97052207284E+01 0.89462132337E+01 0.82852584507E+01 0.77070690614E+01
 0.71804862541E+01 0.66695671089E+01 0.61449776101E+01 0.55921673188E+01 0.50142141360E+01
 0.44286897000E+01 0.38608911266E+01 0.33378577767E+01 0.28851956640E+01 0.25251147428E+01
 0.22748281259E+01 0.21471578713E+01 0.21537021639E+01 0.23074592431E+01 0.26232105028E+01
 0.31179501860E+01 0.38118348701E+01 0.47242512865E+01 0.58607194180E+01 0.71960448457E+01
 0.86650948781E+01 0.10167002733E+02 0.11579283362E+02 0.12775864003E+02 0.13646542276E+02
 0.14117053686E+02 0.14165856022E+02 0.10769325640E+02 0.10478535867E+02 0.10002715711E+02
 0.94188836394E+01 0.87981665904E+01 0.81975065424E+01 0.76552689481E+01 0.71866676219E+01
 0.67827132751E+01 0.64172790380E+01 0.60590262556E+01 0.56812270748E+01 0.52674576562E+01
 0.48148309903E+01 0.43341358870E+01 0.38455555494E+01 0.33727967501E+01 0.29396789973E+01
 0.25686104423E+01 0.22783237327E+01 0.20822864620E+01 0.19907417178E+01 0.20141852036E+01
 0.21634081686E+01 0.24469224973E+01 0.28713151863E+01 0.34447781310E+01 0.41761476609E+01
 0.50641293300E+01 0.60824478525E+01 0.71728812256E+01 0.82523404446E+01 0.92292174709E+01
 0.10019524992E+02 0.10558281035E+02 0.10808483435E+02 0.83825141095E+01 0.83134121526E+01
 0.80791389708E+01 0.77300871606E+01 0.73222209321E+01 0.69068307903E+01 0.65231526450E+01
 0.61918245924E+01 0.59114187732E+01 0.56630307676E+01 0.54212723326E+01 0.51635483495E+01
 0.48736982462E+01 0.45435966336E+01 0.41753525345E+01 0.37813900724E+01 0.33806088779E+01
 0.29937825969E+01 0.26411454900E+01 0.23410065367E+01 0.21080693555E+01 0.19531082110E+01
 0.18850391029E+01 0.19129465458E+01 0.20455424289E+01 0.22890234196E+01 0.26459884415E+01
 0.31161455614E+01 0.36966568789E+01 0.43788112612E+01 0.51402633480E+01 0.59380215155E+01
 0.67103447489E+01 0.73894104426E+01 0.79168055085E+01 0.82532561150E+01 0.65570119208E+01
 0.66215313888E+01 0.65483835702E+01 0.63661926610E+01 0.61151485384E+01 0.58375579983E+01
 0.55693799485E+01 0.53336518688E+01 0.51362904870E+01 0.49676213588E+01 0.48101472812E+01
 0.46463528770E+01 0.44613592653E+01 0.42433522872E+01 0.39865903815E+01 0.36949403127E+01
 0.33808297044E+01 0.30603709880E+01 0.27498594182E+01 0.24651795342E+01 0.22212252988E+01
 0.20301653812E+01 0.19008723841E+01 0.18409374286E+01 0.18591415614E+01 0.19650188659E+01
 0.21647638846E+01 0.24571085482E+01 0.28341353527E+01 0.32864516444E+01 0.38048418573E+01
 0.43730178622E+01 0.49584167830E+01 0.55134029057E+01 0.59881400714E+01 0.63436837976E+01
 0.51788370334E+01 0.53159665151E+01 0.53446532544E+01 0.52778608677E+01 0.51410539438E+01
 0.49661184767E+01 0.47835822508E+01 0.46161431798E+01 0.44750052911E+01 0.43600167121E+01