   3   3   0   0
  0.2984351E+02  0.4524640E-09  0.4524640E-09  0.5049780E-09  0.5000000E-15
  1.000000000000000E-004
  CAR 
 Se                                      
     34.49984769    -15.82912923  301      2.14250961      1.00000000
    -15.829  0.0000E+00  0.0000E+00
    -15.661  0.0000E+00  0.0000E+00
    -15.494  0.0000E+00  0.0000E+00
    -15.326  0.0000E+00  0.0000E+00
    -15.158  0.0000E+00  0.0000E+00
    -14.990  0.0000E+00  0.0000E+00
    -14.823  0.0000E+00  0.0000E+00
    -14.655  0.0000E+00  0.0000E+00
    -14.487  0.0000E+00  0.0000E+00
    -14.319  0.0000E+00  0.0000E+00
    -14.151  0.0000E+00  0.0000E+00
    -13.984  0.0000E+00  0.0000E+00
    -13.816  0.3064E-16  0.5140E-17
    -13.648  0.1599E-04  0.2683E-05
    -13.480  0.1623E+00  0.2723E-01
    -13.313  0.1031E+01  0.2001E+00
    -13.145  0.2571E+01  0.6314E+00
    -12.977  0.2487E+01  0.1049E+01
    -12.809  0.1601E+01  0.1317E+01
    -12.642  0.1551E+01  0.1577E+01
    -12.474  0.1214E+01  0.1781E+01
    -12.306  0.9612E+00  0.1942E+01
    -12.138  0.1186E+01  0.2141E+01
    -11.971  0.6802E+00  0.2256E+01
    -11.803  0.1403E+01  0.2491E+01
    -11.635  0.2739E+00  0.2537E+01
    -11.467  0.1597E+01  0.2805E+01
    -11.300  0.1713E+00  0.2834E+01
    -11.132  0.1156E+01  0.3027E+01
    -10.964  0.8298E+00  0.3167E+01
    -10.796  0.5106E-01  0.3175E+01
    -10.628  0.1929E+01  0.3499E+01
    -10.461  0.7050E-02  0.3500E+01
    -10.293  0.1241E+01  0.3708E+01
    -10.125  0.7800E+00  0.3839E+01
     -9.957  0.6067E+00  0.3941E+01
     -9.790  0.5728E+00  0.4037E+01
     -9.622  0.8016E+00  0.4171E+01
     -9.454  0.1103E+01  0.4356E+01
     -9.286  0.7830E+00  0.4488E+01
     -9.119  0.1152E+01  0.4681E+01
     -8.951  0.8724E+00  0.4827E+01
     -8.783  0.1274E+01  0.5041E+01
     -8.615  0.1513E+01  0.5295E+01
     -8.448  0.1989E+01  0.5629E+01
     -8.280  0.1001E+01  0.5797E+01
     -8.112  0.6068E+00  0.5898E+01
     -7.944  0.3861E+00  0.5963E+01
     -7.776  0.2041E+00  0.5997E+01
     -7.609  0.1530E-01  0.6000E+01
     -7.441  0.1747E-06  0.6000E+01
     -7.273  0.0000E+00  0.6000E+01
     -7.105  0.0000E+00  0.6000E+01
     -6.938  0.0000E+00  0.6000E+01
     -6.770  0.0000E+00  0.6000E+01
     -6.602  0.0000E+00  0.6000E+01
     -6.434  0.0000E+00  0.6000E+01
     -6.267  0.0000E+00  0.6000E+01
     -6.099  0.0000E+00  0.6000E+01
     -5.931  0.0000E+00  0.6000E+01
     -5.763  0.0000E+00  0.6000E+01
     -5.596  0.0000E+00  0.6000E+01
     -5.428  0.0000E+00  0.6000E+01
     -5.260  0.0000E+00  0.6000E+01
     -5.092  0.0000E+00  0.6000E+01
     -4.925  0.0000E+00  0.6000E+01
     -4.757  0.0000E+00  0.6000E+01
     -4.589  0.0000E+00  0.6000E+01
     -4.421  0.0000E+00  0.6000E+01
     -4.253  0.0000E+00  0.6000E+01
     -4.086  0.0000E+00  0.6000E+01
     -3.918  0.0000E+00  0.6000E+01
     -3.750  0.8084E-06  0.6000E+01
     -3.582  0.1018E+00  0.6017E+01
     -3.415  0.1305E+01  0.6236E+01
     -3.247  0.1558E+01  0.6497E+01
     -3.079  0.1606E+01  0.6767E+01
     -2.911  0.2588E+01  0.7201E+01
     -2.744  0.4999E+01  0.8040E+01
     -2.576  0.4287E+01  0.8759E+01
     -2.408  0.3028E+01  0.9267E+01
     -2.240  0.2256E+01  0.9645E+01
     -2.073  0.1665E+01  0.9925E+01
     -1.905  0.1675E+01  0.1021E+02
     -1.737  0.1474E+01  0.1045E+02
     -1.569  0.1445E+01  0.1070E+02
     -1.401  0.2974E+01  0.1119E+02
     -1.234  0.3663E+01  0.1181E+02
     -1.066  0.8681E+00  0.1195E+02
     -0.898  0.2314E+00  0.1199E+02
     -0.730  0.2415E+00  0.1203E+02
     -0.563  0.1216E+01  0.1224E+02
     -0.395  0.1054E+01  0.1241E+02
     -0.227  0.1850E+01  0.1273E+02
     -0.059  0.1863E+01  0.1304E+02
      0.108  0.2748E+01  0.1350E+02
      0.276  0.4059E+01  0.1418E+02
      0.444  0.3510E+01  0.1477E+02
      0.612  0.3446E+01  0.1535E+02
      0.779  0.2418E+01  0.1575E+02
      0.947  0.2729E+01  0.1621E+02
      1.115  0.2760E+01  0.1667E+02
      1.283  0.3320E+01  0.1723E+02
      1.450  0.2220E+01  0.1760E+02
      1.618  0.1263E+01  0.1781E+02
      1.786  0.9942E+00  0.1798E+02
      1.954  0.1115E+00  0.1800E+02
      2.122  0.1656E-05  0.1800E+02
      2.289  0.0000E+00  0.1800E+02
      2.457  0.0000E+00  0.1800E+02
      2.625  0.3061E-09  0.1800E+02
      2.793  0.3221E-02  0.1800E+02
      2.960  0.4280E-01  0.1801E+02
      3.128  0.2002E+00  0.1804E+02
      3.296  0.1395E+01  0.1828E+02
      3.464  0.2969E+01  0.1877E+02
      3.631  0.2969E+01  0.1927E+02
      3.799  0.3978E+01  0.1994E+02
      3.967  0.2804E+01  0.2041E+02
      4.135  0.2727E+01  0.2087E+02
      4.302  0.3257E+01  0.2141E+02
      4.470  0.4175E+01  0.2211E+02
      4.638  0.2868E+01  0.2259E+02
      4.806  0.2847E+01  0.2307E+02
      4.974  0.1904E+01  0.2339E+02
      5.141  0.1373E+01  0.2362E+02
      5.309  0.1156E+01  0.2382E+02
      5.477  0.7801E+00  0.2395E+02
      5.645  0.3061E+00  0.2400E+02
      5.812  0.1042E-01  0.2400E+02
      5.980  0.9025E-08  0.2400E+02
      6.148  0.0000E+00  0.2400E+02
      6.316  0.0000E+00  0.2400E+02
      6.483  0.0000E+00  0.2400E+02
      6.651  0.0000E+00  0.2400E+02
      6.819  0.0000E+00  0.2400E+02
      6.987  0.0000E+00  0.2400E+02
      7.154  0.0000E+00  0.2400E+02
      7.322  0.1781E-06  0.2400E+02
      7.490  0.1993E-01  0.2400E+02
      7.658  0.3550E+00  0.2406E+02
      7.825  0.1134E+01  0.2425E+02
      7.993  0.2262E+01  0.2463E+02
      8.161  0.2365E+01  0.2503E+02
      8.329  0.4263E+01  0.2574E+02
      8.497  0.2653E+01  0.2619E+02
      8.664  0.1191E+01  0.2639E+02
      8.832  0.1323E+01  0.2661E+02
      9.000  0.2418E+01  0.2702E+02
      9.168  0.2344E+01  0.2741E+02
      9.335  0.1981E+01  0.2774E+02
      9.503  0.2493E+01  0.2816E+02
      9.671  0.2332E+01  0.2855E+02
      9.839  0.2448E+01  0.2896E+02
     10.006  0.2388E+01  0.2936E+02
     10.174  0.2590E+01  0.2980E+02
     10.342  0.2826E+01  0.3027E+02
     10.510  0.2386E+01  0.3067E+02
     10.677  0.3061E+01  0.3119E+02
     10.845  0.2109E+01  0.3154E+02
     11.013  0.2400E+01  0.3194E+02
     11.181  0.2124E+01  0.3230E+02
     11.349  0.2199E+01  0.3267E+02
     11.516  0.1863E+01  0.3298E+02
     11.684  0.2740E+01  0.3344E+02
     11.852  0.2311E+01  0.3383E+02
     12.020  0.2675E+01  0.3428E+02
     12.187  0.2561E+01  0.3471E+02
     12.355  0.3846E+01  0.3535E+02
     12.523  0.3309E+01  0.3591E+02
     12.691  0.2786E+01  0.3637E+02
     12.858  0.2690E+01  0.3682E+02
     13.026  0.2632E+01  0.3727E+02
     13.194  0.2466E+01  0.3768E+02
     13.362  0.2199E+01  0.3805E+02
     13.529  0.2079E+01  0.3840E+02
     13.697  0.2481E+01  0.3881E+02
     13.865  0.3259E+01  0.3936E+02
     14.033  0.2502E+01  0.3978E+02
     14.200  0.2429E+01  0.4019E+02
     14.368  0.2967E+01  0.4069E+02
     14.536  0.3677E+01  0.4130E+02
     14.704  0.3057E+01  0.4182E+02
     14.872  0.2513E+01  0.4224E+02
     15.039  0.1808E+01  0.4254E+02
     15.207  0.2318E+01  0.4293E+02
     15.375  0.2572E+01  0.4336E+02
     15.543  0.3468E+01  0.4394E+02
     15.710  0.3030E+01  0.4445E+02
     15.878  0.2979E+01  0.4495E+02
     16.046  0.2857E+01  0.4543E+02
     16.214  0.3950E+01  0.4609E+02
     16.381  0.2826E+01  0.4657E+02
     16.549  0.3076E+01  0.4708E+02
     16.717  0.2856E+01  0.4756E+02
     16.885  0.3195E+01  0.4810E+02
     17.052  0.3075E+01  0.4861E+02
     17.220  0.2898E+01  0.4910E+02
     17.388  0.2922E+01  0.4959E+02
     17.556  0.3170E+01  0.5012E+02
     17.724  0.3050E+01  0.5063E+02
     17.891  0.3357E+01  0.5120E+02
     18.059  0.2279E+01  0.5158E+02
     18.227  0.2083E+01  0.5193E+02
     18.395  0.3112E+01  0.5245E+02
     18.562  0.3396E+01  0.5302E+02
     18.730  0.2257E+01  0.5340E+02
     18.898  0.3373E+01  0.5396E+02
     19.066  0.3265E+01  0.5451E+02
     19.233  0.3390E+01  0.5508E+02
     19.401  0.2661E+01  0.5553E+02
     19.569  0.3815E+01  0.5617E+02
     19.737  0.2881E+01  0.5665E+02
     19.904  0.2537E+01  0.5708E+02
     20.072  0.3203E+01  0.5761E+02
     20.240  0.3337E+01  0.5817E+02
     20.408  0.3324E+01  0.5873E+02
     20.575  0.3225E+01  0.5927E+02
     20.743  0.3400E+01  0.5984E+02
     20.911  0.3449E+01  0.6042E+02
     21.079  0.2853E+01  0.6090E+02
     21.247  0.3231E+01  0.6144E+02
     21.414  0.3246E+01  0.6199E+02
     21.582  0.3472E+01  0.6257E+02
     21.750  0.3170E+01  0.6310E+02
     21.918  0.2873E+01  0.6358E+02
     22.085  0.3214E+01  0.6412E+02
     22.253  0.2898E+01  0.6461E+02
     22.421  0.3247E+01  0.6515E+02
     22.589  0.2995E+01  0.6566E+02
     22.756  0.3386E+01  0.6622E+02
     22.924  0.3439E+01  0.6680E+02
     23.092  0.2986E+01  0.6730E+02
     23.260  0.3541E+01  0.6790E+02
     23.427  0.3342E+01  0.6846E+02
     23.595  0.4069E+01  0.6914E+02
     23.763  0.2974E+01  0.6964E+02
     23.931  0.3483E+01  0.7022E+02
     24.099  0.3247E+01  0.7077E+02
     24.266  0.3426E+01  0.7134E+02
     24.434  0.3364E+01  0.7191E+02
     24.602  0.2960E+01  0.7240E+02
     24.770  0.3974E+01  0.7307E+02
     24.937  0.3846E+01  0.7371E+02
     25.105  0.3305E+01  0.7427E+02
     25.273  0.3721E+01  0.7489E+02
     25.441  0.3385E+01  0.7546E+02
     25.608  0.3518E+01  0.7605E+02
     25.776  0.3517E+01  0.7664E+02
     25.944  0.3940E+01  0.7730E+02
     26.112  0.4009E+01  0.7797E+02
     26.279  0.2628E+01  0.7842E+02
     26.447  0.3990E+01  0.7909E+02
     26.615  0.3287E+01  0.7964E+02
     26.783  0.3361E+01  0.8020E+02
     26.951  0.3173E+01  0.8073E+02
     27.118  0.3920E+01  0.8139E+02
     27.286  0.3099E+01  0.8191E+02
     27.454  0.3870E+01  0.8256E+02
     27.622  0.3990E+01  0.8323E+02
     27.789  0.3522E+01  0.8382E+02
     27.957  0.2863E+01  0.8430E+02
     28.125  0.3770E+01  0.8493E+02
     28.293  0.3932E+01  0.8559E+02
     28.460  0.3758E+01  0.8622E+02
     28.628  0.3555E+01  0.8682E+02
     28.796  0.3618E+01  0.8743E+02
     28.964  0.3633E+01  0.8804E+02
     29.131  0.3772E+01  0.8867E+02
     29.299  0.3656E+01  0.8928E+02
     29.467  0.3730E+01  0.8991E+02
     29.635  0.3535E+01  0.9050E+02
     29.802  0.3672E+01  0.9112E+02
     29.970  0.3541E+01  0.9171E+02
     30.138  0.3527E+01  0.9230E+02
     30.306  0.3114E+01  0.9282E+02
     30.474  0.3773E+01  0.9346E+02
     30.641  0.3820E+01  0.9410E+02
     30.809  0.3243E+01  0.9464E+02
     30.977  0.2949E+01  0.9514E+02
     31.145  0.2042E+01  0.9548E+02
     31.312  0.1584E+01  0.9575E+02
     31.480  0.8658E+00  0.9589E+02
     31.648  0.3940E+00  0.9596E+02
     31.816  0.1608E+00  0.9598E+02
     31.983  0.4201E-01  0.9599E+02
     32.151  0.2841E-01  0.9600E+02
     32.319  0.2678E-01  0.9600E+02
     32.487  0.3493E-04  0.9600E+02
     32.654  0.0000E+00  0.9600E+02
     32.822  0.0000E+00  0.9600E+02
     32.990  0.0000E+00  0.9600E+02
     33.158  0.0000E+00  0.9600E+02
     33.326  0.0000E+00  0.9600E+02
     33.493  0.0000E+00  0.9600E+02
     33.661  0.0000E+00  0.9600E+02
     33.829  0.0000E+00  0.9600E+02
     33.997  0.0000E+00  0.9600E+02
     34.164  0.0000E+00  0.9600E+02
     34.332  0.0000E+00  0.9600E+02
     34.500  0.0000E+00  0.9600E+02
