 vasp.6.4.3 19Mar24 (build Jun 26 2024 13:02:28) complex                        
  
 executed on             LinuxIFC date 2025.08.08  18:41:19
 running   48 mpi-ranks, on    4 nodes
 distrk:  each k-point on   48 cores,    1 groups
 distr:  one band on NCORE=   1 cores,   48 groups


--------------------------------------------------------------------------------------------------------


 INCAR:
   ENCUT = 275.0215
   IBRION = -1
   ISMEAR = 0
   ISYM = 2
   LCHARG = True
   LWAVE = True
   SIGMA = 0.05
   SYSTEM = Se

 POTCAR:  PAW_PBE Se 06Sep2000                    
 -----------------------------------------------------------------------------
|                                                                             |
|           W    W    AA    RRRRR   N    N  II  N    N   GGGG   !!!           |
|           W    W   A  A   R    R  NN   N  II  NN   N  G    G  !!!           |
|           W    W  A    A  R    R  N N  N  II  N N  N  G       !!!           |
|           W WW W  AAAAAA  RRRRR   N  N N  II  N  N N  G  GGG   !            |
|           WW  WW  A    A  R   R   N   NN  II  N   NN  G    G                |
|           W    W  A    A  R    R  N    N  II  N    N   GGGG   !!!           |
|                                                                             |
|     For optimal performance we recommend to set                             |
|       NCORE = 2 up to number-of-cores-per-socket                            |
|     NCORE specifies how many cores store one orbital (NPAR=cpu/NCORE).      |
|     This setting can greatly improve the performance of VASP for DFT.       |
|     The default, NCORE=1 might be grossly inefficient on modern             |
|     multi-core architectures or massively parallel machines. Do your        |
|     own testing! More info at https://www.vasp.at/wiki/index.php/NCORE      |
|     Unfortunately you need to use the default for GW and RPA                |
|     calculations (for HF NCORE is supported but not extensively tested      |
|     yet).                                                                   |
|                                                                             |
 -----------------------------------------------------------------------------

 POTCAR:  PAW_PBE Se 06Sep2000                    
   VRHFIN =Se: s2p4                                                                                 
   LEXCH  = PE                                                                                      
   EATOM  =   257.1286 eV,   18.8984 Ry                                                             
                                                                                                    
   TITEL  = PAW_PBE Se 06Sep2000                                                                    
   LULTRA =        F    use ultrasoft PP ?                                                          
   IUNSCR =        1    unscreen: 0-lin 1-nonlin 2-no                                               
   RPACOR =    1.900    partial core radius                                                         
   POMASS =   78.960; ZVAL   =    6.000    mass and valenz                                          
   RCORE  =    2.100    outmost cutoff radius                                                       
   RWIGS  =    2.200; RWIGS  =    1.164    wigner-seitz radius (au A)                               
   ENMAX  =  211.555; ENMIN  =  158.666 eV                                                          
   ICORE  =        3    local potential                                                             
   LCOR   =        T    correct aug charges                                                         
   LPAW   =        T    paw PP                                                                      
   EAUG   =  446.842                                                                                
   DEXC   =    0.000                                                                                
   RMAX   =    2.147    core radius for proj-oper                                                   
   RAUG   =    1.300    factor for augmentation sphere                                              
   RDEP   =    2.177    radius for radial grids                                                     
   RDEPT  =    1.928    core radius for aug-charge                                                  
                                                                                                    
   Atomic configuration                                                                             
   10 entries                                                                                       
     n  l   j            E        occ.                                                              
     1  0  0.50    -12503.4787   2.0000                                                             
     2  0  0.50     -1606.9547   2.0000                                                             
     2  1  1.50     -1413.3140   6.0000                                                             
     3  0  0.50      -213.4885   2.0000                                                             
     3  1  1.50      -152.9538   6.0000                                                             
     3  2  2.50       -53.1221  10.0000                                                             
     4  0  0.50       -17.2865   2.0000                                                             
     4  1  0.50        -6.5110   4.0000                                                             
     4  2  2.50        -6.8029   0.0000                                                             
     4  3  2.50        -6.8029   0.0000                                                             
   Description                                                                                      
     l       E           TYP  RCUT    TYP  RCUT                                                     
     0    -17.2865377     23  2.100                                                                 
     0    -15.3094411     23  2.100                                                                 
     1     -6.5110275     23  2.100                                                                 
     1     -0.0695192     23  2.100                                                                 
     2     -6.8029130     23  2.100                                                                 
     3     -1.3605826      7  2.100                                                                 
  local pseudopotential read in
  partial core-charges read in
  partial kinetic energy density read in
  atomic valenz-charges read in
  non local Contribution for L=           0  read in
    real space projection operators read in
  non local Contribution for L=           0  read in
    real space projection operators read in
  non local Contribution for L=           1  read in
    real space projection operators read in
  non local Contribution for L=           1  read in
    real space projection operators read in
  non local Contribution for L=           2  read in
    real space projection operators read in
    PAW grid and wavefunctions read in
 
   number of l-projection  operators is LMAX  =           5
   number of lm-projection operators is LMMAX =          13
 
PAW_PBE Se 06Sep2000                    :
 energy of atom  1       EATOM= -257.1286
 kinetic energy error for atom=    0.0043 (will be added to EATOM!!)
 
 
 POSCAR: Se3
  positions in direct lattice
  No initial velocities read in


 exchange-correlation table for PE
   RHO(1)=    0.500       N(1)  =     2000
   RHO(2)=  100.500       N(2)  =     4000
 


--------------------------------------------------------------------------------------------------------


 ion  position               nearest neighbor table
   1  0.219  0.000  0.333-   2 2.40   3 2.40
   2  0.000  0.219  0.667-   1 2.40   3 2.40
   3  0.781  0.781  0.000-   2 2.40   1 2.40
 
  LATTYP: Found a hexagonal cell.
 ALAT       =     4.5246400000
 C/A-ratio  =     1.1160622724
  
  Lattice vectors:
  
 A1 = (   4.5246400000,   0.0000000000,   0.0000000000)
 A2 = (  -2.2623200000,   3.9184531830,   0.0000000000)
 A3 = (   0.0000000000,   0.0000000000,   5.0497800000)


Analysis of symmetry for initial positions (statically):
=====================================================================
 Subroutine PRICEL returns:
 Original cell was already a primitive cell.
 

 Routine SETGRP: Setting up the symmetry group for a 
 hexagonal supercell.


 Subroutine GETGRP returns: Found  6 space group operations
 (whereof  2 operations were pure point group operations)
 out of a pool of 24 trial point group operations.


The static configuration has the point symmetry C_2 .
 The point group associated with its full space group is D_3 .


Analysis of symmetry for dynamics (positions and initial velocities):
=====================================================================
 Subroutine PRICEL returns:
 Original cell was already a primitive cell.
 

 Routine SETGRP: Setting up the symmetry group for a 
 hexagonal supercell.


 Subroutine GETGRP returns: Found  6 space group operations
 (whereof  2 operations were pure point group operations)
 out of a pool of 24 trial point group operations.


The dynamic configuration has the point symmetry C_2 .
 The point group associated with its full space group is D_3 .


 Subroutine INISYM returns: Found  6 space group operations
 (whereof  2 operations are pure point group operations),
 and found     1 'primitive' translations


----------------------------------------------------------------------------------------

                                     Primitive cell                                     

  volume of cell :      89.5305

  direct lattice vectors                    reciprocal lattice vectors
     4.524640000  0.000000000  0.000000000     0.221012058  0.127601371  0.000000000
    -2.262320000  3.918453183  0.000000000     0.000000000  0.255202743  0.000000000
     0.000000000  0.000000000  5.049780000    -0.000000000 -0.000000000  0.198028429

  length of vectors
     4.524640000  4.524640000  5.049780000     0.255202743  0.255202743  0.198028429

  position of ions in fractional coordinates (direct lattice)
     0.219030000  0.000000000  0.333333333
     0.000000000  0.219030000  0.666666667
     0.780970000  0.780970000  1.000000000

  ion indices of the primitive-cell ions
   primitive index   ion index
                 1           1
                 2           2
                 3           3

----------------------------------------------------------------------------------------

 
 
 KPOINTS: Automatic kpoint scheme                 

Automatic generation of k-mesh.
 Grid dimensions read from file:
 generate k-points for:   12   12   12

 Generating k-lattice:

  Cartesian coordinates                     Fractional coordinates (reciprocal lattice)
     0.018417672  0.010633448  0.000000000     0.083333333 -0.000000000  0.000000000
     0.000000000  0.021266895  0.000000000     0.000000000  0.083333333  0.000000000
    -0.000000000 -0.000000000  0.016502369     0.000000000 -0.000000000  0.083333333

  Length of vectors
     0.021266895  0.021266895  0.016502369

  Shift w.r.t. Gamma in fractional coordinates (k-lattice)
     0.000000000  0.000000000  0.000000000

 
 Subroutine IBZKPT returns following result:
 ===========================================
 
 Found    193 irreducible k-points:
 
 Following reciprocal coordinates:
            Coordinates               Weight
  0.000000  0.000000  0.000000      1.000000
  0.083333 -0.000000  0.000000      6.000000
  0.166667 -0.000000  0.000000      6.000000
  0.250000  0.000000  0.000000      6.000000
  0.333333  0.000000  0.000000      6.000000
  0.416667 -0.000000  0.000000      6.000000
  0.500000  0.000000  0.000000      3.000000
  0.083333  0.083333  0.000000      6.000000
  0.166667  0.083333  0.000000     12.000000
  0.250000  0.083333  0.000000     12.000000
  0.333333  0.083333  0.000000     12.000000
  0.416667  0.083333  0.000000     12.000000
  0.166667  0.166667  0.000000      6.000000
  0.250000  0.166667  0.000000     12.000000
  0.333333  0.166667  0.000000     12.000000
  0.416667  0.166667  0.000000      6.000000
  0.250000  0.250000  0.000000      6.000000
  0.333333  0.250000  0.000000     12.000000
  0.333333  0.333333  0.000000      2.000000
 -0.000000 -0.000000  0.083333      2.000000
  0.083333 -0.000000  0.083333      6.000000
 -0.000000  0.083333  0.083333      6.000000
  0.166667 -0.000000  0.083333      6.000000
 -0.000000  0.166667  0.083333      6.000000
  0.250000  0.000000  0.083333      6.000000
 -0.000000  0.250000  0.083333      6.000000
  0.333333  0.000000  0.083333      6.000000
 -0.000000  0.333333  0.083333      6.000000
  0.416667 -0.000000  0.083333      6.000000
 -0.000000  0.416667  0.083333      6.000000
  0.500000  0.000000  0.083333      6.000000
  0.083333  0.083333  0.083333     12.000000
  0.166667  0.083333  0.083333     12.000000
 -0.083333  0.250000  0.083333     12.000000
  0.250000  0.083333  0.083333     12.000000
 -0.083333  0.333333  0.083333     12.000000
  0.333333  0.083333  0.083333     12.000000
 -0.083333  0.416667  0.083333     12.000000
  0.416667  0.083333  0.083333     12.000000
 -0.083333  0.500000  0.083333     12.000000
  0.166667  0.166667  0.083333     12.000000
  0.250000  0.166667  0.083333     12.000000
 -0.166667  0.416667  0.083333     12.000000
  0.333333  0.166667  0.083333     12.000000
 -0.166667  0.500000  0.083333     12.000000
  0.416667  0.166667  0.083333     12.000000
  0.250000  0.250000  0.083333     12.000000
  0.333333  0.250000  0.083333     12.000000
 -0.250000 -0.416667  0.083333     12.000000
  0.333333  0.333333  0.083333      4.000000
 -0.000000 -0.000000  0.166667      2.000000
  0.083333  0.000000  0.166667      6.000000
 -0.000000  0.083333  0.166667      6.000000
  0.166667 -0.000000  0.166667      6.000000
 -0.000000  0.166667  0.166667      6.000000
  0.250000 -0.000000  0.166667      6.000000
 -0.000000  0.250000  0.166667      6.000000
  0.333333 -0.000000  0.166667      6.000000
 -0.000000  0.333333  0.166667      6.000000
  0.416667 -0.000000  0.166667      6.000000
 -0.000000  0.416667  0.166667      6.000000
  0.500000  0.000000  0.166667      6.000000
  0.083333  0.083333  0.166667     12.000000
  0.166667  0.083333  0.166667     12.000000
 -0.083333  0.250000  0.166667     12.000000
  0.250000  0.083333  0.166667     12.000000
 -0.083333  0.333333  0.166667     12.000000
  0.333333  0.083333  0.166667     12.000000
 -0.083333  0.416667  0.166667     12.000000
  0.416667  0.083333  0.166667     12.000000
 -0.083333  0.500000  0.166667     12.000000
  0.166667  0.166667  0.166667     12.000000
  0.250000  0.166667  0.166667     12.000000
 -0.166667  0.416667  0.166667     12.000000
  0.333333  0.166667  0.166667     12.000000
 -0.166667  0.500000  0.166667     12.000000
  0.416667  0.166667  0.166667     12.000000
  0.250000  0.250000  0.166667     12.000000
  0.333333  0.250000  0.166667     12.000000
 -0.250000 -0.416667  0.166667     12.000000
  0.333333  0.333333  0.166667      4.000000
 -0.000000 -0.000000  0.250000      2.000000
  0.083333  0.000000  0.250000      6.000000
 -0.000000  0.083333  0.250000      6.000000
  0.166667 -0.000000  0.250000      6.000000
 -0.000000  0.166667  0.250000      6.000000
  0.250000 -0.000000  0.250000      6.000000
 -0.000000  0.250000  0.250000      6.000000
  0.333333 -0.000000  0.250000      6.000000
 -0.000000  0.333333  0.250000      6.000000
  0.416667 -0.000000  0.250000      6.000000
 -0.000000  0.416667  0.250000      6.000000
  0.500000  0.000000  0.250000      6.000000
  0.083333  0.083333  0.250000     12.000000
  0.166667  0.083333  0.250000     12.000000
 -0.083333  0.250000  0.250000     12.000000
  0.250000  0.083333  0.250000     12.000000
 -0.083333  0.333333  0.250000     12.000000
  0.333333  0.083333  0.250000     12.000000
 -0.083333  0.416667  0.250000     12.000000
  0.416667  0.083333  0.250000     12.000000
 -0.083333  0.500000  0.250000     12.000000
  0.166667  0.166667  0.250000     12.000000
  0.250000  0.166667  0.250000     12.000000
 -0.166667  0.416667  0.250000     12.000000
  0.333333  0.166667  0.250000     12.000000
 -0.166667  0.500000  0.250000     12.000000
  0.416667  0.166667  0.250000     12.000000
  0.250000  0.250000  0.250000     12.000000
  0.333333  0.250000  0.250000     12.000000
 -0.250000 -0.416667  0.250000     12.000000
  0.333333  0.333333  0.250000      4.000000
 -0.000000 -0.000000  0.333333      2.000000
  0.083333 -0.000000  0.333333      6.000000
 -0.000000  0.083333  0.333333      6.000000
  0.166667  0.000000  0.333333      6.000000
 -0.000000  0.166667  0.333333      6.000000
  0.250000  0.000000  0.333333      6.000000
 -0.000000  0.250000  0.333333      6.000000
  0.333333  0.000000  0.333333      6.000000
 -0.000000  0.333333  0.333333      6.000000
  0.416667 -0.000000  0.333333      6.000000
 -0.000000  0.416667  0.333333      6.000000
  0.500000 -0.000000  0.333333      6.000000
  0.083333  0.083333  0.333333     12.000000
  0.166667  0.083333  0.333333     12.000000
 -0.083333  0.250000  0.333333     12.000000
  0.250000  0.083333  0.333333     12.000000
 -0.083333  0.333333  0.333333     12.000000
  0.333333  0.083333  0.333333     12.000000
 -0.083333  0.416667  0.333333     12.000000
  0.416667  0.083333  0.333333     12.000000
 -0.083333  0.500000  0.333333     12.000000
  0.166667  0.166667  0.333333     12.000000
  0.250000  0.166667  0.333333     12.000000
 -0.166667  0.416667  0.333333     12.000000
  0.333333  0.166667  0.333333     12.000000
 -0.166667  0.500000  0.333333     12.000000
  0.416667  0.166667  0.333333     12.000000
  0.250000  0.250000  0.333333     12.000000
  0.333333  0.250000  0.333333     12.000000
 -0.250000 -0.416667  0.333333     12.000000
  0.333333  0.333333  0.333333      4.000000
 -0.000000 -0.000000  0.416667      2.000000
  0.083333  0.000000  0.416667      6.000000
 -0.000000  0.083333  0.416667      6.000000
  0.166667  0.000000  0.416667      6.000000
 -0.000000  0.166667  0.416667      6.000000
  0.250000  0.000000  0.416667      6.000000
 -0.000000  0.250000  0.416667      6.000000
  0.333333  0.000000  0.416667      6.000000
 -0.000000  0.333333  0.416667      6.000000
  0.416667 -0.000000  0.416667      6.000000
 -0.000000  0.416667  0.416667      6.000000
  0.500000 -0.000000  0.416667      6.000000
  0.083333  0.083333  0.416667     12.000000
  0.166667  0.083333  0.416667     12.000000
 -0.083333  0.250000  0.416667     12.000000
  0.250000  0.083333  0.416667     12.000000
 -0.083333  0.333333  0.416667     12.000000
  0.333333  0.083333  0.416667     12.000000
 -0.083333  0.416667  0.416667     12.000000
  0.416667  0.083333  0.416667     12.000000
 -0.083333  0.500000  0.416667     12.000000
  0.166667  0.166667  0.416667     12.000000
  0.250000  0.166667  0.416667     12.000000
 -0.166667  0.416667  0.416667     12.000000
  0.333333  0.166667  0.416667     12.000000
 -0.166667  0.500000  0.416667     12.000000
  0.416667  0.166667  0.416667     12.000000
  0.250000  0.250000  0.416667     12.000000
  0.333333  0.250000  0.416667     12.000000
 -0.250000 -0.416667  0.416667     12.000000
  0.333333  0.333333  0.416667      4.000000
 -0.000000 -0.000000  0.500000      1.000000
  0.083333 -0.000000  0.500000      6.000000
  0.166667  0.000000  0.500000      6.000000
  0.250000  0.000000  0.500000      6.000000
  0.333333 -0.000000  0.500000      6.000000
  0.416667 -0.000000  0.500000      6.000000
  0.500000 -0.000000  0.500000      3.000000
  0.083333  0.083333  0.500000      6.000000
  0.166667  0.083333  0.500000     12.000000
  0.250000  0.083333  0.500000     12.000000
  0.333333  0.083333  0.500000     12.000000
  0.416667  0.083333  0.500000     12.000000
  0.166667  0.166667  0.500000      6.000000
  0.250000  0.166667  0.500000     12.000000
  0.333333  0.166667  0.500000     12.000000
  0.416667  0.166667  0.500000      6.000000
  0.250000  0.250000  0.500000      6.000000
  0.333333  0.250000  0.500000     12.000000
  0.333333  0.333333  0.500000      2.000000
 
 Following cartesian coordinates:
            Coordinates               Weight
  0.000000  0.000000  0.000000      1.000000
  0.018418  0.010633  0.000000      6.000000
  0.036835  0.021267  0.000000      6.000000
  0.055253  0.031900  0.000000      6.000000
  0.073671  0.042534  0.000000      6.000000
  0.092088  0.053167  0.000000      6.000000
  0.110506  0.063801  0.000000      3.000000
  0.018418  0.031900  0.000000      6.000000
  0.036835  0.042534  0.000000     12.000000
  0.055253  0.053167  0.000000     12.000000
  0.073671  0.063801  0.000000     12.000000
  0.092088  0.074434  0.000000     12.000000
  0.036835  0.063801  0.000000      6.000000
  0.055253  0.074434  0.000000     12.000000
  0.073671  0.085068  0.000000     12.000000
  0.092088  0.095701  0.000000      6.000000
  0.055253  0.095701  0.000000      6.000000
  0.073671  0.106334  0.000000     12.000000
  0.073671  0.127601  0.000000      2.000000
 -0.000000 -0.000000  0.016502      2.000000
  0.018418  0.010633  0.016502      6.000000
 -0.000000  0.021267  0.016502      6.000000
  0.036835  0.021267  0.016502      6.000000
 -0.000000  0.042534  0.016502      6.000000
  0.055253  0.031900  0.016502      6.000000
 -0.000000  0.063801  0.016502      6.000000
  0.073671  0.042534  0.016502      6.000000
 -0.000000  0.085068  0.016502      6.000000
  0.092088  0.053167  0.016502      6.000000
 -0.000000  0.106334  0.016502      6.000000
  0.110506  0.063801  0.016502      6.000000
  0.018418  0.031900  0.016502     12.000000
  0.036835  0.042534  0.016502     12.000000
 -0.018418  0.053167  0.016502     12.000000
  0.055253  0.053167  0.016502     12.000000
 -0.018418  0.074434  0.016502     12.000000
  0.073671  0.063801  0.016502     12.000000
 -0.018418  0.095701  0.016502     12.000000
  0.092088  0.074434  0.016502     12.000000
 -0.018418  0.116968  0.016502     12.000000
  0.036835  0.063801  0.016502     12.000000
  0.055253  0.074434  0.016502     12.000000
 -0.036835  0.085068  0.016502     12.000000
  0.073671  0.085068  0.016502     12.000000
 -0.036835  0.106334  0.016502     12.000000
  0.092088  0.095701  0.016502     12.000000
  0.055253  0.095701  0.016502     12.000000
  0.073671  0.106334  0.016502     12.000000
 -0.055253 -0.138235  0.016502     12.000000
  0.073671  0.127601  0.016502      4.000000
 -0.000000 -0.000000  0.033005      2.000000
  0.018418  0.010633  0.033005      6.000000
 -0.000000  0.021267  0.033005      6.000000
  0.036835  0.021267  0.033005      6.000000
 -0.000000  0.042534  0.033005      6.000000
  0.055253  0.031900  0.033005      6.000000
 -0.000000  0.063801  0.033005      6.000000
  0.073671  0.042534  0.033005      6.000000
 -0.000000  0.085068  0.033005      6.000000
  0.092088  0.053167  0.033005      6.000000
 -0.000000  0.106334  0.033005      6.000000
  0.110506  0.063801  0.033005      6.000000
  0.018418  0.031900  0.033005     12.000000
  0.036835  0.042534  0.033005     12.000000
 -0.018418  0.053167  0.033005     12.000000
  0.055253  0.053167  0.033005     12.000000
 -0.018418  0.074434  0.033005     12.000000
  0.073671  0.063801  0.033005     12.000000
 -0.018418  0.095701  0.033005     12.000000
  0.092088  0.074434  0.033005     12.000000
 -0.018418  0.116968  0.033005     12.000000
  0.036835  0.063801  0.033005     12.000000
  0.055253  0.074434  0.033005     12.000000
 -0.036835  0.085068  0.033005     12.000000
  0.073671  0.085068  0.033005     12.000000
 -0.036835  0.106334  0.033005     12.000000
  0.092088  0.095701  0.033005     12.000000
  0.055253  0.095701  0.033005     12.000000
  0.073671  0.106334  0.033005     12.000000
 -0.055253 -0.138235  0.033005     12.000000
  0.073671  0.127601  0.033005      4.000000
 -0.000000 -0.000000  0.049507      2.000000
  0.018418  0.010633  0.049507      6.000000
 -0.000000  0.021267  0.049507      6.000000
  0.036835  0.021267  0.049507      6.000000
 -0.000000  0.042534  0.049507      6.000000
  0.055253  0.031900  0.049507      6.000000
 -0.000000  0.063801  0.049507      6.000000
  0.073671  0.042534  0.049507      6.000000
 -0.000000  0.085068  0.049507      6.000000
  0.092088  0.053167  0.049507      6.000000
 -0.000000  0.106334  0.049507      6.000000
  0.110506  0.063801  0.049507      6.000000
  0.018418  0.031900  0.049507     12.000000
  0.036835  0.042534  0.049507     12.000000
 -0.018418  0.053167  0.049507     12.000000
  0.055253  0.053167  0.049507     12.000000
 -0.018418  0.074434  0.049507     12.000000
  0.073671  0.063801  0.049507     12.000000
 -0.018418  0.095701  0.049507     12.000000
  0.092088  0.074434  0.049507     12.000000
 -0.018418  0.116968  0.049507     12.000000
  0.036835  0.063801  0.049507     12.000000
  0.055253  0.074434  0.049507     12.000000
 -0.036835  0.085068  0.049507     12.000000
  0.073671  0.085068  0.049507     12.000000
 -0.036835  0.106334  0.049507     12.000000
  0.092088  0.095701  0.049507     12.000000
  0.055253  0.095701  0.049507     12.000000
  0.073671  0.106334  0.049507     12.000000
 -0.055253 -0.138235  0.049507     12.000000
  0.073671  0.127601  0.049507      4.000000
 -0.000000 -0.000000  0.066009      2.000000
  0.018418  0.010633  0.066009      6.000000
 -0.000000  0.021267  0.066009      6.000000
  0.036835  0.021267  0.066009      6.000000
 -0.000000  0.042534  0.066009      6.000000
  0.055253  0.031900  0.066009      6.000000
 -0.000000  0.063801  0.066009      6.000000
  0.073671  0.042534  0.066009      6.000000
 -0.000000  0.085068  0.066009      6.000000
  0.092088  0.053167  0.066009      6.000000
 -0.000000  0.106334  0.066009      6.000000
  0.110506  0.063801  0.066009      6.000000
  0.018418  0.031900  0.066009     12.000000
  0.036835  0.042534  0.066009     12.000000
 -0.018418  0.053167  0.066009     12.000000
  0.055253  0.053167  0.066009     12.000000
 -0.018418  0.074434  0.066009     12.000000
  0.073671  0.063801  0.066009     12.000000
 -0.018418  0.095701  0.066009     12.000000
  0.092088  0.074434  0.066009     12.000000
 -0.018418  0.116968  0.066009     12.000000
  0.036835  0.063801  0.066009     12.000000
  0.055253  0.074434  0.066009     12.000000
 -0.036835  0.085068  0.066009     12.000000
  0.073671  0.085068  0.066009     12.000000
 -0.036835  0.106334  0.066009     12.000000
  0.092088  0.095701  0.066009     12.000000
  0.055253  0.095701  0.066009     12.000000
  0.073671  0.106334  0.066009     12.000000
 -0.055253 -0.138235  0.066009     12.000000
  0.073671  0.127601  0.066009      4.000000
 -0.000000 -0.000000  0.082512      2.000000
  0.018418  0.010633  0.082512      6.000000
 -0.000000  0.021267  0.082512      6.000000
  0.036835  0.021267  0.082512      6.000000
 -0.000000  0.042534  0.082512      6.000000
  0.055253  0.031900  0.082512      6.000000
 -0.000000  0.063801  0.082512      6.000000
  0.073671  0.042534  0.082512      6.000000
 -0.000000  0.085068  0.082512      6.000000
  0.092088  0.053167  0.082512      6.000000
 -0.000000  0.106334  0.082512      6.000000
  0.110506  0.063801  0.082512      6.000000
  0.018418  0.031900  0.082512     12.000000
  0.036835  0.042534  0.082512     12.000000
 -0.018418  0.053167  0.082512     12.000000
  0.055253  0.053167  0.082512     12.000000
 -0.018418  0.074434  0.082512     12.000000
  0.073671  0.063801  0.082512     12.000000
 -0.018418  0.095701  0.082512     12.000000
  0.092088  0.074434  0.082512     12.000000
 -0.018418  0.116968  0.082512     12.000000
  0.036835  0.063801  0.082512     12.000000
  0.055253  0.074434  0.082512     12.000000
 -0.036835  0.085068  0.082512     12.000000
  0.073671  0.085068  0.082512     12.000000
 -0.036835  0.106334  0.082512     12.000000
  0.092088  0.095701  0.082512     12.000000
  0.055253  0.095701  0.082512     12.000000
  0.073671  0.106334  0.082512     12.000000
 -0.055253 -0.138235  0.082512     12.000000
  0.073671  0.127601  0.082512      4.000000
 -0.000000 -0.000000  0.099014      1.000000
  0.018418  0.010633  0.099014      6.000000
  0.036835  0.021267  0.099014      6.000000
  0.055253  0.031900  0.099014      6.000000
  0.073671  0.042534  0.099014      6.000000
  0.092088  0.053167  0.099014      6.000000
  0.110506  0.063801  0.099014      3.000000
  0.018418  0.031900  0.099014      6.000000
  0.036835  0.042534  0.099014     12.000000
  0.055253  0.053167  0.099014     12.000000
  0.073671  0.063801  0.099014     12.000000
  0.092088  0.074434  0.099014     12.000000
  0.036835  0.063801  0.099014      6.000000
  0.055253  0.074434  0.099014     12.000000
  0.073671  0.085068  0.099014     12.000000
  0.092088  0.095701  0.099014      6.000000
  0.055253  0.095701  0.099014      6.000000
  0.073671  0.106334  0.099014     12.000000
  0.073671  0.127601  0.099014      2.000000
 
 
 Subroutine IBZKPT_HF returns following result:
 ==============================================
 
 Found   1728 k-points in 1st BZ
 the following   1728 k-points will be used (e.g. in the exchange kernel)
 Following reciprocal coordinates:   # in IRBZ
  0.000000  0.000000  0.000000    0.00057870   1 t-inv F
  0.083333 -0.000000  0.000000    0.00057870   2 t-inv F
  0.166667 -0.000000  0.000000    0.00057870   3 t-inv F
  0.250000  0.000000  0.000000    0.00057870   4 t-inv F
  0.333333  0.000000  0.000000    0.00057870   5 t-inv F
  0.416667 -0.000000  0.000000    0.00057870   6 t-inv F
  0.500000  0.000000  0.000000    0.00057870   7 t-inv F
  0.083333  0.083333  0.000000    0.00057870   8 t-inv F
  0.166667  0.083333  0.000000    0.00057870   9 t-inv F
  0.250000  0.083333  0.000000    0.00057870  10 t-inv F
  0.333333  0.083333  0.000000    0.00057870  11 t-inv F
  0.416667  0.083333  0.000000    0.00057870  12 t-inv F
  0.166667  0.166667  0.000000    0.00057870  13 t-inv F
  0.250000  0.166667  0.000000    0.00057870  14 t-inv F
  0.333333  0.166667  0.000000    0.00057870  15 t-inv F
  0.416667  0.166667  0.000000    0.00057870  16 t-inv F
  0.250000  0.250000  0.000000    0.00057870  17 t-inv F
  0.333333  0.250000  0.000000    0.00057870  18 t-inv F
  0.333333  0.333333  0.000000    0.00057870  19 t-inv F
 -0.000000 -0.000000  0.083333    0.00057870  20 t-inv F
  0.083333 -0.000000  0.083333    0.00057870  21 t-inv F
 -0.000000  0.083333  0.083333    0.00057870  22 t-inv F
  0.166667 -0.000000  0.083333    0.00057870  23 t-inv F
 -0.000000  0.166667  0.083333    0.00057870  24 t-inv F
  0.250000  0.000000  0.083333    0.00057870  25 t-inv F
 -0.000000  0.250000  0.083333    0.00057870  26 t-inv F
  0.333333  0.000000  0.083333    0.00057870  27 t-inv F
 -0.000000  0.333333  0.083333    0.00057870  28 t-inv F
  0.416667 -0.000000  0.083333    0.00057870  29 t-inv F
 -0.000000  0.416667  0.083333    0.00057870  30 t-inv F
  0.500000  0.000000  0.083333    0.00057870  31 t-inv F
  0.083333  0.083333  0.083333    0.00057870  32 t-inv F
  0.166667  0.083333  0.083333    0.00057870  33 t-inv F
 -0.083333  0.250000  0.083333    0.00057870  34 t-inv F
  0.250000  0.083333  0.083333    0.00057870  35 t-inv F
 -0.083333  0.333333  0.083333    0.00057870  36 t-inv F
  0.333333  0.083333  0.083333    0.00057870  37 t-inv F
 -0.083333  0.416667  0.083333    0.00057870  38 t-inv F
  0.416667  0.083333  0.083333    0.00057870  39 t-inv F
 -0.083333  0.500000  0.083333    0.00057870  40 t-inv F
  0.166667  0.166667  0.083333    0.00057870  41 t-inv F
  0.250000  0.166667  0.083333    0.00057870  42 t-inv F
 -0.166667  0.416667  0.083333    0.00057870  43 t-inv F
  0.333333  0.166667  0.083333    0.00057870  44 t-inv F
 -0.166667  0.500000  0.083333    0.00057870  45 t-inv F
  0.416667  0.166667  0.083333    0.00057870  46 t-inv F
  0.250000  0.250000  0.083333    0.00057870  47 t-inv F
  0.333333  0.250000  0.083333    0.00057870  48 t-inv F
 -0.250000 -0.416667  0.083333    0.00057870  49 t-inv F
  0.333333  0.333333  0.083333    0.00057870  50 t-inv F
 -0.000000 -0.000000  0.166667    0.00057870  51 t-inv F
  0.083333  0.000000  0.166667    0.00057870  52 t-inv F
 -0.000000  0.083333  0.166667    0.00057870  53 t-inv F
  0.166667 -0.000000  0.166667    0.00057870  54 t-inv F
 -0.000000  0.166667  0.166667    0.00057870  55 t-inv F
  0.250000 -0.000000  0.166667    0.00057870  56 t-inv F
 -0.000000  0.250000  0.166667    0.00057870  57 t-inv F
  0.333333 -0.000000  0.166667    0.00057870  58 t-inv F
 -0.000000  0.333333  0.166667    0.00057870  59 t-inv F
  0.416667 -0.000000  0.166667    0.00057870  60 t-inv F
 -0.000000  0.416667  0.166667    0.00057870  61 t-inv F
  0.500000  0.000000  0.166667    0.00057870  62 t-inv F
  0.083333  0.083333  0.166667    0.00057870  63 t-inv F
  0.166667  0.083333  0.166667    0.00057870  64 t-inv F
 -0.083333  0.250000  0.166667    0.00057870  65 t-inv F
  0.250000  0.083333  0.166667    0.00057870  66 t-inv F
 -0.083333  0.333333  0.166667    0.00057870  67 t-inv F
  0.333333  0.083333  0.166667    0.00057870  68 t-inv F
 -0.083333  0.416667  0.166667    0.00057870  69 t-inv F
  0.416667  0.083333  0.166667    0.00057870  70 t-inv F
 -0.083333  0.500000  0.166667    0.00057870  71 t-inv F
  0.166667  0.166667  0.166667    0.00057870  72 t-inv F
  0.250000  0.166667  0.166667    0.00057870  73 t-inv F
 -0.166667  0.416667  0.166667    0.00057870  74 t-inv F
  0.333333  0.166667  0.166667    0.00057870  75 t-inv F
 -0.166667  0.500000  0.166667    0.00057870  76 t-inv F
  0.416667  0.166667  0.166667    0.00057870  77 t-inv F
  0.250000  0.250000  0.166667    0.00057870  78 t-inv F
  0.333333  0.250000  0.166667    0.00057870  79 t-inv F
 -0.250000 -0.416667  0.166667    0.00057870  80 t-inv F
  0.333333  0.333333  0.166667    0.00057870  81 t-inv F
 -0.000000 -0.000000  0.250000    0.00057870  82 t-inv F
  0.083333  0.000000  0.250000    0.00057870  83 t-inv F
 -0.000000  0.083333  0.250000    0.00057870  84 t-inv F
  0.166667 -0.000000  0.250000    0.00057870  85 t-inv F
 -0.000000  0.166667  0.250000    0.00057870  86 t-inv F
  0.250000 -0.000000  0.250000    0.00057870  87 t-inv F
 -0.000000  0.250000  0.250000    0.00057870  88 t-inv F
  0.333333 -0.000000  0.250000    0.00057870  89 t-inv F
 -0.000000  0.333333  0.250000    0.00057870  90 t-inv F
  0.416667 -0.000000  0.250000    0.00057870  91 t-inv F
 -0.000000  0.416667  0.250000    0.00057870  92 t-inv F
  0.500000  0.000000  0.250000    0.00057870  93 t-inv F
  0.083333  0.083333  0.250000    0.00057870  94 t-inv F
  0.166667  0.083333  0.250000    0.00057870  95 t-inv F
 -0.083333  0.250000  0.250000    0.00057870  96 t-inv F
  0.250000  0.083333  0.250000    0.00057870  97 t-inv F
 -0.083333  0.333333  0.250000    0.00057870  98 t-inv F
  0.333333  0.083333  0.250000    0.00057870  99 t-inv F
 -0.083333  0.416667  0.250000    0.00057870 100 t-inv F
  0.416667  0.083333  0.250000    0.00057870 101 t-inv F
 -0.083333  0.500000  0.250000    0.00057870 102 t-inv F
  0.166667  0.166667  0.250000    0.00057870 103 t-inv F
  0.250000  0.166667  0.250000    0.00057870 104 t-inv F
 -0.166667  0.416667  0.250000    0.00057870 105 t-inv F
  0.333333  0.166667  0.250000    0.00057870 106 t-inv F
 -0.166667  0.500000  0.250000    0.00057870 107 t-inv F
  0.416667  0.166667  0.250000    0.00057870 108 t-inv F
  0.250000  0.250000  0.250000    0.00057870 109 t-inv F
  0.333333  0.250000  0.250000    0.00057870 110 t-inv F
 -0.250000 -0.416667  0.250000    0.00057870 111 t-inv F
  0.333333  0.333333  0.250000    0.00057870 112 t-inv F
 -0.000000 -0.000000  0.333333    0.00057870 113 t-inv F
  0.083333 -0.000000  0.333333    0.00057870 114 t-inv F
 -0.000000  0.083333  0.333333    0.00057870 115 t-inv F
  0.166667  0.000000  0.333333    0.00057870 116 t-inv F
 -0.000000  0.166667  0.333333    0.00057870 117 t-inv F
  0.250000  0.000000  0.333333    0.00057870 118 t-inv F
 -0.000000  0.250000  0.333333    0.00057870 119 t-inv F
  0.333333  0.000000  0.333333    0.00057870 120 t-inv F
 -0.000000  0.333333  0.333333    0.00057870 121 t-inv F
  0.416667 -0.000000  0.333333    0.00057870 122 t-inv F
 -0.000000  0.416667  0.333333    0.00057870 123 t-inv F
  0.500000 -0.000000  0.333333    0.00057870 124 t-inv F
  0.083333  0.083333  0.333333    0.00057870 125 t-inv F
  0.166667  0.083333  0.333333    0.00057870 126 t-inv F
 -0.083333  0.250000  0.333333    0.00057870 127 t-inv F
  0.250000  0.083333  0.333333    0.00057870 128 t-inv F
 -0.083333  0.333333  0.333333    0.00057870 129 t-inv F
  0.333333  0.083333  0.333333    0.00057870 130 t-inv F
 -0.083333  0.416667  0.333333    0.00057870 131 t-inv F
  0.416667  0.083333  0.333333    0.00057870 132 t-inv F
 -0.083333  0.500000  0.333333    0.00057870 133 t-inv F
  0.166667  0.166667  0.333333    0.00057870 134 t-inv F
  0.250000  0.166667  0.333333    0.00057870 135 t-inv F
 -0.166667  0.416667  0.333333    0.00057870 136 t-inv F
  0.333333  0.166667  0.333333    0.00057870 137 t-inv F
 -0.166667  0.500000  0.333333    0.00057870 138 t-inv F
  0.416667  0.166667  0.333333    0.00057870 139 t-inv F
  0.250000  0.250000  0.333333    0.00057870 140 t-inv F
  0.333333  0.250000  0.333333    0.00057870 141 t-inv F
 -0.250000 -0.416667  0.333333    0.00057870 142 t-inv F
  0.333333  0.333333  0.333333    0.00057870 143 t-inv F
 -0.000000 -0.000000  0.416667    0.00057870 144 t-inv F
  0.083333  0.000000  0.416667    0.00057870 145 t-inv F
 -0.000000  0.083333  0.416667    0.00057870 146 t-inv F
  0.166667  0.000000  0.416667    0.00057870 147 t-inv F
 -0.000000  0.166667  0.416667    0.00057870 148 t-inv F
  0.250000  0.000000  0.416667    0.00057870 149 t-inv F
 -0.000000  0.250000  0.416667    0.00057870 150 t-inv F
  0.333333  0.000000  0.416667    0.00057870 151 t-inv F
 -0.000000  0.333333  0.416667    0.00057870 152 t-inv F
  0.416667 -0.000000  0.416667    0.00057870 153 t-inv F
 -0.000000  0.416667  0.416667    0.00057870 154 t-inv F
  0.500000 -0.000000  0.416667    0.00057870 155 t-inv F
  0.083333  0.083333  0.416667    0.00057870 156 t-inv F
  0.166667  0.083333  0.416667    0.00057870 157 t-inv F
 -0.083333  0.250000  0.416667    0.00057870 158 t-inv F
  0.250000  0.083333  0.416667    0.00057870 159 t-inv F
 -0.083333  0.333333  0.416667    0.00057870 160 t-inv F
  0.333333  0.083333  0.416667    0.00057870 161 t-inv F
 -0.083333  0.416667  0.416667    0.00057870 162 t-inv F
  0.416667  0.083333  0.416667    0.00057870 163 t-inv F
 -0.083333  0.500000  0.416667    0.00057870 164 t-inv F
  0.166667  0.166667  0.416667    0.00057870 165 t-inv F
  0.250000  0.166667  0.416667    0.00057870 166 t-inv F
 -0.166667  0.416667  0.416667    0.00057870 167 t-inv F
  0.333333  0.166667  0.416667    0.00057870 168 t-inv F
 -0.166667  0.500000  0.416667    0.00057870 169 t-inv F
  0.416667  0.166667  0.416667    0.00057870 170 t-inv F
  0.250000  0.250000  0.416667    0.00057870 171 t-inv F
  0.333333  0.250000  0.416667    0.00057870 172 t-inv F
 -0.250000 -0.416667  0.416667    0.00057870 173 t-inv F
  0.333333  0.333333  0.416667    0.00057870 174 t-inv F
 -0.000000 -0.000000  0.500000    0.00057870 175 t-inv F
  0.083333 -0.000000  0.500000    0.00057870 176 t-inv F
  0.166667  0.000000  0.500000    0.00057870 177 t-inv F
  0.250000  0.000000  0.500000    0.00057870 178 t-inv F
  0.333333 -0.000000  0.500000    0.00057870 179 t-inv F
  0.416667 -0.000000  0.500000    0.00057870 180 t-inv F
  0.500000 -0.000000  0.500000    0.00057870 181 t-inv F
  0.083333  0.083333  0.500000    0.00057870 182 t-inv F
  0.166667  0.083333  0.500000    0.00057870 183 t-inv F
  0.250000  0.083333  0.500000    0.00057870 184 t-inv F
  0.333333  0.083333  0.500000    0.00057870 185 t-inv F
  0.416667  0.083333  0.500000    0.00057870 186 t-inv F
  0.166667  0.166667  0.500000    0.00057870 187 t-inv F
  0.250000  0.166667  0.500000    0.00057870 188 t-inv F
  0.333333  0.166667  0.500000    0.00057870 189 t-inv F
  0.416667  0.166667  0.500000    0.00057870 190 t-inv F
  0.250000  0.250000  0.500000    0.00057870 191 t-inv F
  0.333333  0.250000  0.500000    0.00057870 192 t-inv F
  0.333333  0.333333  0.500000    0.00057870 193 t-inv F
 -0.000000  0.083333  0.000000    0.00057870   2 t-inv F
 -0.083333  0.083333  0.000000    0.00057870   2 t-inv F
 -0.000000 -0.083333  0.000000    0.00057870   2 t-inv F
  0.083333 -0.083333  0.000000    0.00057870   2 t-inv F
 -0.083333 -0.000000  0.000000    0.00057870   2 t-inv F
 -0.000000  0.166667  0.000000    0.00057870   3 t-inv F
 -0.166667  0.166667  0.000000    0.00057870   3 t-inv F
 -0.000000 -0.166667  0.000000    0.00057870   3 t-inv F
  0.166667 -0.166667  0.000000    0.00057870   3 t-inv F
 -0.166667 -0.000000  0.000000    0.00057870   3 t-inv F
  0.000000  0.250000  0.000000    0.00057870   4 t-inv F
 -0.250000  0.250000  0.000000    0.00057870   4 t-inv F
  0.000000 -0.250000  0.000000    0.00057870   4 t-inv F
  0.250000 -0.250000  0.000000    0.00057870   4 t-inv F
 -0.250000  0.000000  0.000000    0.00057870   4 t-inv F
  0.000000  0.333333  0.000000    0.00057870   5 t-inv F
 -0.333333  0.333333  0.000000    0.00057870   5 t-inv F
  0.000000 -0.333333  0.000000    0.00057870   5 t-inv F
  0.333333 -0.333333  0.000000    0.00057870   5 t-inv F
 -0.333333  0.000000  0.000000    0.00057870   5 t-inv F
 -0.000000  0.416667  0.000000    0.00057870   6 t-inv F
 -0.416667  0.416667  0.000000    0.00057870   6 t-inv F
 -0.000000 -0.416667  0.000000    0.00057870   6 t-inv F
  0.416667 -0.416667  0.000000    0.00057870   6 t-inv F
 -0.416667 -0.000000  0.000000    0.00057870   6 t-inv F
  0.000000  0.500000  0.000000    0.00057870   7 t-inv F
 -0.500000  0.500000  0.000000    0.00057870   7 t-inv F
 -0.166667  0.083333  0.000000    0.00057870   8 t-inv F
  0.083333 -0.166667  0.000000    0.00057870   8 t-inv F
  0.083333  0.166667  0.000000    0.00057870   9 t-inv F
 -0.250000  0.166667  0.000000    0.00057870   9 t-inv F
  0.083333 -0.250000  0.000000    0.00057870   9 t-inv F
  0.166667 -0.250000  0.000000    0.00057870   9 t-inv F
 -0.250000  0.083333  0.000000    0.00057870   9 t-inv F
  0.083333  0.250000  0.000000    0.00057870  10 t-inv F
 -0.333333  0.250000  0.000000    0.00057870  10 t-inv F
  0.083333 -0.333333  0.000000    0.00057870  10 t-inv F
  0.250000 -0.333333  0.000000    0.00057870  10 t-inv F
 -0.333333  0.083333  0.000000    0.00057870  10 t-inv F
  0.083333  0.333333  0.000000    0.00057870  11 t-inv F
 -0.416667  0.333333  0.000000    0.00057870  11 t-inv F
  0.083333 -0.416667  0.000000    0.00057870  11 t-inv F
  0.333333 -0.416667  0.000000    0.00057870  11 t-inv F
 -0.416667  0.083333  0.000000    0.00057870  11 t-inv F
  0.083333  0.416667  0.000000    0.00057870  12 t-inv F
 -0.500000  0.416667  0.000000    0.00057870  12 t-inv F
  0.083333 -0.500000  0.000000    0.00057870  12 t-inv F
  0.416667 -0.500000  0.000000    0.00057870  12 t-inv F
 -0.500000  0.083333  0.000000    0.00057870  12 t-inv F
 -0.333333  0.166667  0.000000    0.00057870  13 t-inv F
  0.166667 -0.333333  0.000000    0.00057870  13 t-inv F
  0.166667  0.250000  0.000000    0.00057870  14 t-inv F
 -0.416667  0.250000  0.000000    0.00057870  14 t-inv F
  0.166667 -0.416667  0.000000    0.00057870  14 t-inv F
  0.250000 -0.416667  0.000000    0.00057870  14 t-inv F
 -0.416667  0.166667  0.000000    0.00057870  14 t-inv F
  0.166667  0.333333  0.000000    0.00057870  15 t-inv F
 -0.500000  0.333333  0.000000    0.00057870  15 t-inv F
  0.166667 -0.500000  0.000000    0.00057870  15 t-inv F
  0.333333 -0.500000  0.000000    0.00057870  15 t-inv F
 -0.500000  0.166667  0.000000    0.00057870  15 t-inv F
  0.166667  0.416667  0.000000    0.00057870  16 t-inv F
 -0.583333  0.416667  0.000000    0.00057870  16 t-inv F
 -0.500000  0.250000  0.000000    0.00057870  17 t-inv F
  0.250000 -0.500000  0.000000    0.00057870  17 t-inv F
  0.250000  0.333333  0.000000    0.00057870  18 t-inv F
 -0.583333  0.333333  0.000000    0.00057870  18 t-inv F
  0.250000 -0.583333  0.000000    0.00057870  18 t-inv F
  0.333333 -0.583333  0.000000    0.00057870  18 t-inv F
 -0.583333  0.250000  0.000000    0.00057870  18 t-inv F
 -0.000000 -0.000000 -0.083333    0.00057870  20 t-inv F
 -0.000000  0.083333 -0.083333    0.00057870  21 t-inv F
 -0.083333  0.083333  0.083333    0.00057870  21 t-inv F
 -0.000000 -0.083333  0.083333    0.00057870  21 t-inv F
  0.083333 -0.083333 -0.083333    0.00057870  21 t-inv F
 -0.083333 -0.000000 -0.083333    0.00057870  21 t-inv F
  0.083333 -0.000000 -0.083333    0.00057870  22 t-inv F
 -0.083333 -0.000000  0.083333    0.00057870  22 t-inv F
  0.083333 -0.083333  0.083333    0.00057870  22 t-inv F
 -0.000000 -0.083333 -0.083333    0.00057870  22 t-inv F
 -0.083333  0.083333 -0.083333    0.00057870  22 t-inv F
 -0.000000  0.166667 -0.083333    0.00057870  23 t-inv F
 -0.166667  0.166667  0.083333    0.00057870  23 t-inv F
 -0.000000 -0.166667  0.083333    0.00057870  23 t-inv F
  0.166667 -0.166667 -0.083333    0.00057870  23 t-inv F
 -0.166667 -0.000000 -0.083333    0.00057870  23 t-inv F
  0.166667 -0.000000 -0.083333    0.00057870  24 t-inv F
 -0.166667 -0.000000  0.083333    0.00057870  24 t-inv F
  0.166667 -0.166667  0.083333    0.00057870  24 t-inv F
 -0.000000 -0.166667 -0.083333    0.00057870  24 t-inv F
 -0.166667  0.166667 -0.083333    0.00057870  24 t-inv F
  0.000000  0.250000 -0.083333    0.00057870  25 t-inv F
 -0.250000  0.250000  0.083333    0.00057870  25 t-inv F
  0.000000 -0.250000  0.083333    0.00057870  25 t-inv F
  0.250000 -0.250000 -0.083333    0.00057870  25 t-inv F
 -0.250000  0.000000 -0.083333    0.00057870  25 t-inv F
  0.250000 -0.000000 -0.083333    0.00057870  26 t-inv F
 -0.250000 -0.000000  0.083333    0.00057870  26 t-inv F
  0.250000 -0.250000  0.083333    0.00057870  26 t-inv F
 -0.000000 -0.250000 -0.083333    0.00057870  26 t-inv F
 -0.250000  0.250000 -0.083333    0.00057870  26 t-inv F
  0.000000  0.333333 -0.083333    0.00057870  27 t-inv F
 -0.333333  0.333333  0.083333    0.00057870  27 t-inv F
  0.000000 -0.333333  0.083333    0.00057870  27 t-inv F
  0.333333 -0.333333 -0.083333    0.00057870  27 t-inv F
 -0.333333  0.000000 -0.083333    0.00057870  27 t-inv F
  0.333333 -0.000000 -0.083333    0.00057870  28 t-inv F
 -0.333333 -0.000000  0.083333    0.00057870  28 t-inv F
  0.333333 -0.333333  0.083333    0.00057870  28 t-inv F
 -0.000000 -0.333333 -0.083333    0.00057870  28 t-inv F
 -0.333333  0.333333 -0.083333    0.00057870  28 t-inv F
 -0.000000  0.416667 -0.083333    0.00057870  29 t-inv F
 -0.416667  0.416667  0.083333    0.00057870  29 t-inv F
 -0.000000 -0.416667  0.083333    0.00057870  29 t-inv F
  0.416667 -0.416667 -0.083333    0.00057870  29 t-inv F
 -0.416667 -0.000000 -0.083333    0.00057870  29 t-inv F
  0.416667 -0.000000 -0.083333    0.00057870  30 t-inv F
 -0.416667 -0.000000  0.083333    0.00057870  30 t-inv F
  0.416667 -0.416667  0.083333    0.00057870  30 t-inv F
 -0.000000 -0.416667 -0.083333    0.00057870  30 t-inv F
 -0.416667  0.416667 -0.083333    0.00057870  30 t-inv F
  0.000000  0.500000 -0.083333    0.00057870  31 t-inv F
 -0.500000  0.500000  0.083333    0.00057870  31 t-inv F
  0.000000 -0.500000  0.083333    0.00057870  31 t-inv F
  0.500000 -0.500000 -0.083333    0.00057870  31 t-inv F
 -0.500000  0.000000 -0.083333    0.00057870  31 t-inv F
  0.083333  0.083333 -0.083333    0.00057870  32 t-inv F
 -0.166667  0.083333  0.083333    0.00057870  32 t-inv F
  0.083333 -0.166667  0.083333    0.00057870  32 t-inv F
  0.083333 -0.166667 -0.083333    0.00057870  32 t-inv F
 -0.166667  0.083333 -0.083333    0.00057870  32 t-inv F
  0.083333  0.166667 -0.083333    0.00057870  33 t-inv F
 -0.250000  0.166667  0.083333    0.00057870  33 t-inv F
  0.083333 -0.250000  0.083333    0.00057870  33 t-inv F
  0.166667 -0.250000 -0.083333    0.00057870  33 t-inv F
 -0.250000  0.083333 -0.083333    0.00057870  33 t-inv F
  0.250000 -0.083333 -0.083333    0.00057870  34 t-inv F
 -0.166667 -0.083333  0.083333    0.00057870  34 t-inv F
  0.250000 -0.166667  0.083333    0.00057870  34 t-inv F
 -0.083333 -0.166667 -0.083333    0.00057870  34 t-inv F
 -0.166667  0.250000 -0.083333    0.00057870  34 t-inv F
  0.083333  0.250000 -0.083333    0.00057870  35 t-inv F
 -0.333333  0.250000  0.083333    0.00057870  35 t-inv F
  0.083333 -0.333333  0.083333    0.00057870  35 t-inv F
  0.250000 -0.333333 -0.083333    0.00057870  35 t-inv F
 -0.333333  0.083333 -0.083333    0.00057870  35 t-inv F
  0.333333 -0.083333 -0.083333    0.00057870  36 t-inv F
 -0.250000 -0.083333  0.083333    0.00057870  36 t-inv F
  0.333333 -0.250000  0.083333    0.00057870  36 t-inv F
 -0.083333 -0.250000 -0.083333    0.00057870  36 t-inv F
 -0.250000  0.333333 -0.083333    0.00057870  36 t-inv F
  0.083333  0.333333 -0.083333    0.00057870  37 t-inv F
 -0.416667  0.333333  0.083333    0.00057870  37 t-inv F
  0.083333 -0.416667  0.083333    0.00057870  37 t-inv F
  0.333333 -0.416667 -0.083333    0.00057870  37 t-inv F
 -0.416667  0.083333 -0.083333    0.00057870  37 t-inv F
  0.416667 -0.083333 -0.083333    0.00057870  38 t-inv F
 -0.333333 -0.083333  0.083333    0.00057870  38 t-inv F
  0.416667 -0.333333  0.083333    0.00057870  38 t-inv F
 -0.083333 -0.333333 -0.083333    0.00057870  38 t-inv F
 -0.333333  0.416667 -0.083333    0.00057870  38 t-inv F
  0.083333  0.416667 -0.083333    0.00057870  39 t-inv F
 -0.500000  0.416667  0.083333    0.00057870  39 t-inv F
  0.083333 -0.500000  0.083333    0.00057870  39 t-inv F
  0.416667 -0.500000 -0.083333    0.00057870  39 t-inv F
 -0.500000  0.083333 -0.083333    0.00057870  39 t-inv F
  0.500000 -0.083333 -0.083333    0.00057870  40 t-inv F
 -0.416667 -0.083333  0.083333    0.00057870  40 t-inv F
  0.500000 -0.416667  0.083333    0.00057870  40 t-inv F
 -0.083333 -0.416667 -0.083333    0.00057870  40 t-inv F
 -0.416667  0.500000 -0.083333    0.00057870  40 t-inv F
  0.166667  0.166667 -0.083333    0.00057870  41 t-inv F
 -0.333333  0.166667  0.083333    0.00057870  41 t-inv F
  0.166667 -0.333333  0.083333    0.00057870  41 t-inv F
  0.166667 -0.333333 -0.083333    0.00057870  41 t-inv F
 -0.333333  0.166667 -0.083333    0.00057870  41 t-inv F
  0.166667  0.250000 -0.083333    0.00057870  42 t-inv F
 -0.416667  0.250000  0.083333    0.00057870  42 t-inv F
  0.166667 -0.416667  0.083333    0.00057870  42 t-inv F
  0.250000 -0.416667 -0.083333    0.00057870  42 t-inv F
 -0.416667  0.166667 -0.083333    0.00057870  42 t-inv F
  0.416667 -0.166667 -0.083333    0.00057870  43 t-inv F
 -0.250000 -0.166667  0.083333    0.00057870  43 t-inv F
  0.416667 -0.250000  0.083333    0.00057870  43 t-inv F
 -0.166667 -0.250000 -0.083333    0.00057870  43 t-inv F
 -0.250000  0.416667 -0.083333    0.00057870  43 t-inv F
  0.166667  0.333333 -0.083333    0.00057870  44 t-inv F
 -0.500000  0.333333  0.083333    0.00057870  44 t-inv F
  0.166667 -0.500000  0.083333    0.00057870  44 t-inv F
  0.333333 -0.500000 -0.083333    0.00057870  44 t-inv F
 -0.500000  0.166667 -0.083333    0.00057870  44 t-inv F
  0.500000 -0.166667 -0.083333    0.00057870  45 t-inv F
 -0.333333 -0.166667  0.083333    0.00057870  45 t-inv F
  0.500000 -0.333333  0.083333    0.00057870  45 t-inv F
 -0.166667 -0.333333 -0.083333    0.00057870  45 t-inv F
 -0.333333  0.500000 -0.083333    0.00057870  45 t-inv F
  0.166667  0.416667 -0.083333    0.00057870  46 t-inv F
 -0.583333  0.416667  0.083333    0.00057870  46 t-inv F
  0.166667 -0.583333  0.083333    0.00057870  46 t-inv F
  0.416667 -0.583333 -0.083333    0.00057870  46 t-inv F
 -0.583333  0.166667 -0.083333    0.00057870  46 t-inv F
  0.250000  0.250000 -0.083333    0.00057870  47 t-inv F
 -0.500000  0.250000  0.083333    0.00057870  47 t-inv F
  0.250000 -0.500000  0.083333    0.00057870  47 t-inv F
  0.250000 -0.500000 -0.083333    0.00057870  47 t-inv F
 -0.500000  0.250000 -0.083333    0.00057870  47 t-inv F
  0.250000  0.333333 -0.083333    0.00057870  48 t-inv F
 -0.583333  0.333333  0.083333    0.00057870  48 t-inv F
  0.250000 -0.583333  0.083333    0.00057870  48 t-inv F
  0.333333 -0.583333 -0.083333    0.00057870  48 t-inv F
 -0.583333  0.250000 -0.083333    0.00057870  48 t-inv F
 -0.416667 -0.250000 -0.083333    0.00057870  49 t-inv F
  0.666667 -0.250000  0.083333    0.00057870  49 t-inv F
 -0.416667  0.666667  0.083333    0.00057870  49 t-inv F
 -0.250000  0.666667 -0.083333    0.00057870  49 t-inv F
  0.666667 -0.416667 -0.083333    0.00057870  49 t-inv F
  0.333333  0.333333 -0.083333    0.00057870  50 t-inv F
 -0.000000 -0.000000 -0.166667    0.00057870  51 t-inv F
  0.000000  0.083333 -0.166667    0.00057870  52 t-inv F
 -0.083333  0.083333  0.166667    0.00057870  52 t-inv F
  0.000000 -0.083333  0.166667    0.00057870  52 t-inv F
  0.083333 -0.083333 -0.166667    0.00057870  52 t-inv F
 -0.083333  0.000000 -0.166667    0.00057870  52 t-inv F
  0.083333 -0.000000 -0.166667    0.00057870  53 t-inv F
 -0.083333 -0.000000  0.166667    0.00057870  53 t-inv F
  0.083333 -0.083333  0.166667    0.00057870  53 t-inv F
 -0.000000 -0.083333 -0.166667    0.00057870  53 t-inv F
 -0.083333  0.083333 -0.166667    0.00057870  53 t-inv F
 -0.000000  0.166667 -0.166667    0.00057870  54 t-inv F
 -0.166667  0.166667  0.166667    0.00057870  54 t-inv F
 -0.000000 -0.166667  0.166667    0.00057870  54 t-inv F
  0.166667 -0.166667 -0.166667    0.00057870  54 t-inv F
 -0.166667 -0.000000 -0.166667    0.00057870  54 t-inv F
  0.166667 -0.000000 -0.166667    0.00057870  55 t-inv F
 -0.166667 -0.000000  0.166667    0.00057870  55 t-inv F
  0.166667 -0.166667  0.166667    0.00057870  55 t-inv F
 -0.000000 -0.166667 -0.166667    0.00057870  55 t-inv F
 -0.166667  0.166667 -0.166667    0.00057870  55 t-inv F
 -0.000000  0.250000 -0.166667    0.00057870  56 t-inv F
 -0.250000  0.250000  0.166667    0.00057870  56 t-inv F
 -0.000000 -0.250000  0.166667    0.00057870  56 t-inv F
  0.250000 -0.250000 -0.166667    0.00057870  56 t-inv F
 -0.250000 -0.000000 -0.166667    0.00057870  56 t-inv F
  0.250000 -0.000000 -0.166667    0.00057870  57 t-inv F
 -0.250000 -0.000000  0.166667    0.00057870  57 t-inv F
  0.250000 -0.250000  0.166667    0.00057870  57 t-inv F
 -0.000000 -0.250000 -0.166667    0.00057870  57 t-inv F
 -0.250000  0.250000 -0.166667    0.00057870  57 t-inv F
 -0.000000  0.333333 -0.166667    0.00057870  58 t-inv F
 -0.333333  0.333333  0.166667    0.00057870  58 t-inv F
 -0.000000 -0.333333  0.166667    0.00057870  58 t-inv F
  0.333333 -0.333333 -0.166667    0.00057870  58 t-inv F
 -0.333333 -0.000000 -0.166667    0.00057870  58 t-inv F
  0.333333 -0.000000 -0.166667    0.00057870  59 t-inv F
 -0.333333 -0.000000  0.166667    0.00057870  59 t-inv F
  0.333333 -0.333333  0.166667    0.00057870  59 t-inv F
 -0.000000 -0.333333 -0.166667    0.00057870  59 t-inv F
 -0.333333  0.333333 -0.166667    0.00057870  59 t-inv F
 -0.000000  0.416667 -0.166667    0.00057870  60 t-inv F
 -0.416667  0.416667  0.166667    0.00057870  60 t-inv F
 -0.000000 -0.416667  0.166667    0.00057870  60 t-inv F
  0.416667 -0.416667 -0.166667    0.00057870  60 t-inv F
 -0.416667 -0.000000 -0.166667    0.00057870  60 t-inv F
  0.416667 -0.000000 -0.166667    0.00057870  61 t-inv F
 -0.416667 -0.000000  0.166667    0.00057870  61 t-inv F
  0.416667 -0.416667  0.166667    0.00057870  61 t-inv F
 -0.000000 -0.416667 -0.166667    0.00057870  61 t-inv F
 -0.416667  0.416667 -0.166667    0.00057870  61 t-inv F
  0.000000  0.500000 -0.166667    0.00057870  62 t-inv F
 -0.500000  0.500000  0.166667    0.00057870  62 t-inv F
  0.000000 -0.500000  0.166667    0.00057870  62 t-inv F
  0.500000 -0.500000 -0.166667    0.00057870  62 t-inv F
 -0.500000  0.000000 -0.166667    0.00057870  62 t-inv F
  0.083333  0.083333 -0.166667    0.00057870  63 t-inv F
 -0.166667  0.083333  0.166667    0.00057870  63 t-inv F
  0.083333 -0.166667  0.166667    0.00057870  63 t-inv F
  0.083333 -0.166667 -0.166667    0.00057870  63 t-inv F
 -0.166667  0.083333 -0.166667    0.00057870  63 t-inv F
  0.083333  0.166667 -0.166667    0.00057870  64 t-inv F
 -0.250000  0.166667  0.166667    0.00057870  64 t-inv F
  0.083333 -0.250000  0.166667    0.00057870  64 t-inv F
  0.166667 -0.250000 -0.166667    0.00057870  64 t-inv F
 -0.250000  0.083333 -0.166667    0.00057870  64 t-inv F
  0.250000 -0.083333 -0.166667    0.00057870  65 t-inv F
 -0.166667 -0.083333  0.166667    0.00057870  65 t-inv F
  0.250000 -0.166667  0.166667    0.00057870  65 t-inv F
 -0.083333 -0.166667 -0.166667    0.00057870  65 t-inv F
 -0.166667  0.250000 -0.166667    0.00057870  65 t-inv F
  0.083333  0.250000 -0.166667    0.00057870  66 t-inv F
 -0.333333  0.250000  0.166667    0.00057870  66 t-inv F
  0.083333 -0.333333  0.166667    0.00057870  66 t-inv F
  0.250000 -0.333333 -0.166667    0.00057870  66 t-inv F
 -0.333333  0.083333 -0.166667    0.00057870  66 t-inv F
  0.333333 -0.083333 -0.166667    0.00057870  67 t-inv F
 -0.250000 -0.083333  0.166667    0.00057870  67 t-inv F
  0.333333 -0.250000  0.166667    0.00057870  67 t-inv F
 -0.083333 -0.250000 -0.166667    0.00057870  67 t-inv F
 -0.250000  0.333333 -0.166667    0.00057870  67 t-inv F
  0.083333  0.333333 -0.166667    0.00057870  68 t-inv F
 -0.416667  0.333333  0.166667    0.00057870  68 t-inv F
  0.083333 -0.416667  0.166667    0.00057870  68 t-inv F
  0.333333 -0.416667 -0.166667    0.00057870  68 t-inv F
 -0.416667  0.083333 -0.166667    0.00057870  68 t-inv F
  0.416667 -0.083333 -0.166667    0.00057870  69 t-inv F
 -0.333333 -0.083333  0.166667    0.00057870  69 t-inv F
  0.416667 -0.333333  0.166667    0.00057870  69 t-inv F
 -0.083333 -0.333333 -0.166667    0.00057870  69 t-inv F
 -0.333333  0.416667 -0.166667    0.00057870  69 t-inv F
  0.083333  0.416667 -0.166667    0.00057870  70 t-inv F
 -0.500000  0.416667  0.166667    0.00057870  70 t-inv F
  0.083333 -0.500000  0.166667    0.00057870  70 t-inv F
  0.416667 -0.500000 -0.166667    0.00057870  70 t-inv F
 -0.500000  0.083333 -0.166667    0.00057870  70 t-inv F
  0.500000 -0.083333 -0.166667    0.00057870  71 t-inv F
 -0.416667 -0.083333  0.166667    0.00057870  71 t-inv F
  0.500000 -0.416667  0.166667    0.00057870  71 t-inv F
 -0.083333 -0.416667 -0.166667    0.00057870  71 t-inv F
 -0.416667  0.500000 -0.166667    0.00057870  71 t-inv F
  0.166667  0.166667 -0.166667    0.00057870  72 t-inv F
 -0.333333  0.166667  0.166667    0.00057870  72 t-inv F
  0.166667 -0.333333  0.166667    0.00057870  72 t-inv F
  0.166667 -0.333333 -0.166667    0.00057870  72 t-inv F
 -0.333333  0.166667 -0.166667    0.00057870  72 t-inv F
  0.166667  0.250000 -0.166667    0.00057870  73 t-inv F
 -0.416667  0.250000  0.166667    0.00057870  73 t-inv F
  0.166667 -0.416667  0.166667    0.00057870  73 t-inv F
  0.250000 -0.416667 -0.166667    0.00057870  73 t-inv F
 -0.416667  0.166667 -0.166667    0.00057870  73 t-inv F
  0.416667 -0.166667 -0.166667    0.00057870  74 t-inv F
 -0.250000 -0.166667  0.166667    0.00057870  74 t-inv F
  0.416667 -0.250000  0.166667    0.00057870  74 t-inv F
 -0.166667 -0.250000 -0.166667    0.00057870  74 t-inv F
 -0.250000  0.416667 -0.166667    0.00057870  74 t-inv F
  0.166667  0.333333 -0.166667    0.00057870  75 t-inv F
 -0.500000  0.333333  0.166667    0.00057870  75 t-inv F
  0.166667 -0.500000  0.166667    0.00057870  75 t-inv F
  0.333333 -0.500000 -0.166667    0.00057870  75 t-inv F
 -0.500000  0.166667 -0.166667    0.00057870  75 t-inv F
  0.500000 -0.166667 -0.166667    0.00057870  76 t-inv F
 -0.333333 -0.166667  0.166667    0.00057870  76 t-inv F
  0.500000 -0.333333  0.166667    0.00057870  76 t-inv F
 -0.166667 -0.333333 -0.166667    0.00057870  76 t-inv F
 -0.333333  0.500000 -0.166667    0.00057870  76 t-inv F
  0.166667  0.416667 -0.166667    0.00057870  77 t-inv F
 -0.583333  0.416667  0.166667    0.00057870  77 t-inv F
  0.166667 -0.583333  0.166667    0.00057870  77 t-inv F
  0.416667 -0.583333 -0.166667    0.00057870  77 t-inv F
 -0.583333  0.166667 -0.166667    0.00057870  77 t-inv F
  0.250000  0.250000 -0.166667    0.00057870  78 t-inv F
 -0.500000  0.250000  0.166667    0.00057870  78 t-inv F
  0.250000 -0.500000  0.166667    0.00057870  78 t-inv F
  0.250000 -0.500000 -0.166667    0.00057870  78 t-inv F
 -0.500000  0.250000 -0.166667    0.00057870  78 t-inv F
  0.250000  0.333333 -0.166667    0.00057870  79 t-inv F
 -0.583333  0.333333  0.166667    0.00057870  79 t-inv F
  0.250000 -0.583333  0.166667    0.00057870  79 t-inv F
  0.333333 -0.583333 -0.166667    0.00057870  79 t-inv F
 -0.583333  0.250000 -0.166667    0.00057870  79 t-inv F
 -0.416667 -0.250000 -0.166667    0.00057870  80 t-inv F
  0.666667 -0.250000  0.166667    0.00057870  80 t-inv F
 -0.416667  0.666667  0.166667    0.00057870  80 t-inv F
 -0.250000  0.666667 -0.166667    0.00057870  80 t-inv F
  0.666667 -0.416667 -0.166667    0.00057870  80 t-inv F
  0.333333  0.333333 -0.166667    0.00057870  81 t-inv F
 -0.000000 -0.000000 -0.250000    0.00057870  82 t-inv F
  0.000000  0.083333 -0.250000    0.00057870  83 t-inv F
 -0.083333  0.083333  0.250000    0.00057870  83 t-inv F
  0.000000 -0.083333  0.250000    0.00057870  83 t-inv F
  0.083333 -0.083333 -0.250000    0.00057870  83 t-inv F
 -0.083333  0.000000 -0.250000    0.00057870  83 t-inv F
  0.083333 -0.000000 -0.250000    0.00057870  84 t-inv F
 -0.083333 -0.000000  0.250000    0.00057870  84 t-inv F
  0.083333 -0.083333  0.250000    0.00057870  84 t-inv F
 -0.000000 -0.083333 -0.250000    0.00057870  84 t-inv F
 -0.083333  0.083333 -0.250000    0.00057870  84 t-inv F
 -0.000000  0.166667 -0.250000    0.00057870  85 t-inv F
 -0.166667  0.166667  0.250000    0.00057870  85 t-inv F
 -0.000000 -0.166667  0.250000    0.00057870  85 t-inv F
  0.166667 -0.166667 -0.250000    0.00057870  85 t-inv F
 -0.166667 -0.000000 -0.250000    0.00057870  85 t-inv F
  0.166667 -0.000000 -0.250000    0.00057870  86 t-inv F
 -0.166667 -0.000000  0.250000    0.00057870  86 t-inv F
  0.166667 -0.166667  0.250000    0.00057870  86 t-inv F
 -0.000000 -0.166667 -0.250000    0.00057870  86 t-inv F
 -0.166667  0.166667 -0.250000    0.00057870  86 t-inv F
 -0.000000  0.250000 -0.250000    0.00057870  87 t-inv F
 -0.250000  0.250000  0.250000    0.00057870  87 t-inv F
 -0.000000 -0.250000  0.250000    0.00057870  87 t-inv F
  0.250000 -0.250000 -0.250000    0.00057870  87 t-inv F
 -0.250000 -0.000000 -0.250000    0.00057870  87 t-inv F
  0.250000 -0.000000 -0.250000    0.00057870  88 t-inv F
 -0.250000 -0.000000  0.250000    0.00057870  88 t-inv F
  0.250000 -0.250000  0.250000    0.00057870  88 t-inv F
 -0.000000 -0.250000 -0.250000    0.00057870  88 t-inv F
 -0.250000  0.250000 -0.250000    0.00057870  88 t-inv F
 -0.000000  0.333333 -0.250000    0.00057870  89 t-inv F
 -0.333333  0.333333  0.250000    0.00057870  89 t-inv F
 -0.000000 -0.333333  0.250000    0.00057870  89 t-inv F
  0.333333 -0.333333 -0.250000    0.00057870  89 t-inv F
 -0.333333 -0.000000 -0.250000    0.00057870  89 t-inv F
  0.333333 -0.000000 -0.250000    0.00057870  90 t-inv F
 -0.333333 -0.000000  0.250000    0.00057870  90 t-inv F
  0.333333 -0.333333  0.250000    0.00057870  90 t-inv F
 -0.000000 -0.333333 -0.250000    0.00057870  90 t-inv F
 -0.333333  0.333333 -0.250000    0.00057870  90 t-inv F
 -0.000000  0.416667 -0.250000    0.00057870  91 t-inv F
 -0.416667  0.416667  0.250000    0.00057870  91 t-inv F
 -0.000000 -0.416667  0.250000    0.00057870  91 t-inv F
  0.416667 -0.416667 -0.250000    0.00057870  91 t-inv F
 -0.416667 -0.000000 -0.250000    0.00057870  91 t-inv F
  0.416667 -0.000000 -0.250000    0.00057870  92 t-inv F
 -0.416667 -0.000000  0.250000    0.00057870  92 t-inv F
  0.416667 -0.416667  0.250000    0.00057870  92 t-inv F
 -0.000000 -0.416667 -0.250000    0.00057870  92 t-inv F
 -0.416667  0.416667 -0.250000    0.00057870  92 t-inv F
  0.000000  0.500000 -0.250000    0.00057870  93 t-inv F
 -0.500000  0.500000  0.250000    0.00057870  93 t-inv F
  0.000000 -0.500000  0.250000    0.00057870  93 t-inv F
  0.500000 -0.500000 -0.250000    0.00057870  93 t-inv F
 -0.500000  0.000000 -0.250000    0.00057870  93 t-inv F
  0.083333  0.083333 -0.250000    0.00057870  94 t-inv F
 -0.166667  0.083333  0.250000    0.00057870  94 t-inv F
  0.083333 -0.166667  0.250000    0.00057870  94 t-inv F
  0.083333 -0.166667 -0.250000    0.00057870  94 t-inv F
 -0.166667  0.083333 -0.250000    0.00057870  94 t-inv F
  0.083333  0.166667 -0.250000    0.00057870  95 t-inv F
 -0.250000  0.166667  0.250000    0.00057870  95 t-inv F
  0.083333 -0.250000  0.250000    0.00057870  95 t-inv F
  0.166667 -0.250000 -0.250000    0.00057870  95 t-inv F
 -0.250000  0.083333 -0.250000    0.00057870  95 t-inv F
  0.250000 -0.083333 -0.250000    0.00057870  96 t-inv F
 -0.166667 -0.083333  0.250000    0.00057870  96 t-inv F
  0.250000 -0.166667  0.250000    0.00057870  96 t-inv F
 -0.083333 -0.166667 -0.250000    0.00057870  96 t-inv F
 -0.166667  0.250000 -0.250000    0.00057870  96 t-inv F
  0.083333  0.250000 -0.250000    0.00057870  97 t-inv F
 -0.333333  0.250000  0.250000    0.00057870  97 t-inv F
  0.083333 -0.333333  0.250000    0.00057870  97 t-inv F
  0.250000 -0.333333 -0.250000    0.00057870  97 t-inv F
 -0.333333  0.083333 -0.250000    0.00057870  97 t-inv F
  0.333333 -0.083333 -0.250000    0.00057870  98 t-inv F
 -0.250000 -0.083333  0.250000    0.00057870  98 t-inv F
  0.333333 -0.250000  0.250000    0.00057870  98 t-inv F
 -0.083333 -0.250000 -0.250000    0.00057870  98 t-inv F
 -0.250000  0.333333 -0.250000    0.00057870  98 t-inv F
  0.083333  0.333333 -0.250000    0.00057870  99 t-inv F
 -0.416667  0.333333  0.250000    0.00057870  99 t-inv F
  0.083333 -0.416667  0.250000    0.00057870  99 t-inv F
  0.333333 -0.416667 -0.250000    0.00057870  99 t-inv F
 -0.416667  0.083333 -0.250000    0.00057870  99 t-inv F
  0.416667 -0.083333 -0.250000    0.00057870 100 t-inv F
 -0.333333 -0.083333  0.250000    0.00057870 100 t-inv F
  0.416667 -0.333333  0.250000    0.00057870 100 t-inv F
 -0.083333 -0.333333 -0.250000    0.00057870 100 t-inv F
 -0.333333  0.416667 -0.250000    0.00057870 100 t-inv F
  0.083333  0.416667 -0.250000    0.00057870 101 t-inv F
 -0.500000  0.416667  0.250000    0.00057870 101 t-inv F
  0.083333 -0.500000  0.250000    0.00057870 101 t-inv F
  0.416667 -0.500000 -0.250000    0.00057870 101 t-inv F
 -0.500000  0.083333 -0.250000    0.00057870 101 t-inv F
  0.500000 -0.083333 -0.250000    0.00057870 102 t-inv F
 -0.416667 -0.083333  0.250000    0.00057870 102 t-inv F
  0.500000 -0.416667  0.250000    0.00057870 102 t-inv F
 -0.083333 -0.416667 -0.250000    0.00057870 102 t-inv F
 -0.416667  0.500000 -0.250000    0.00057870 102 t-inv F
  0.166667  0.166667 -0.250000    0.00057870 103 t-inv F
 -0.333333  0.166667  0.250000    0.00057870 103 t-inv F
  0.166667 -0.333333  0.250000    0.00057870 103 t-inv F
  0.166667 -0.333333 -0.250000    0.00057870 103 t-inv F
 -0.333333  0.166667 -0.250000    0.00057870 103 t-inv F
  0.166667  0.250000 -0.250000    0.00057870 104 t-inv F
 -0.416667  0.250000  0.250000    0.00057870 104 t-inv F
  0.166667 -0.416667  0.250000    0.00057870 104 t-inv F
  0.250000 -0.416667 -0.250000    0.00057870 104 t-inv F
 -0.416667  0.166667 -0.250000    0.00057870 104 t-inv F
  0.416667 -0.166667 -0.250000    0.00057870 105 t-inv F
 -0.250000 -0.166667  0.250000    0.00057870 105 t-inv F
  0.416667 -0.250000  0.250000    0.00057870 105 t-inv F
 -0.166667 -0.250000 -0.250000    0.00057870 105 t-inv F
 -0.250000  0.416667 -0.250000    0.00057870 105 t-inv F
  0.166667  0.333333 -0.250000    0.00057870 106 t-inv F
 -0.500000  0.333333  0.250000    0.00057870 106 t-inv F
  0.166667 -0.500000  0.250000    0.00057870 106 t-inv F
  0.333333 -0.500000 -0.250000    0.00057870 106 t-inv F
 -0.500000  0.166667 -0.250000    0.00057870 106 t-inv F
  0.500000 -0.166667 -0.250000    0.00057870 107 t-inv F
 -0.333333 -0.166667  0.250000    0.00057870 107 t-inv F
  0.500000 -0.333333  0.250000    0.00057870 107 t-inv F
 -0.166667 -0.333333 -0.250000    0.00057870 107 t-inv F
 -0.333333  0.500000 -0.250000    0.00057870 107 t-inv F
  0.166667  0.416667 -0.250000    0.00057870 108 t-inv F
 -0.583333  0.416667  0.250000    0.00057870 108 t-inv F
  0.166667 -0.583333  0.250000    0.00057870 108 t-inv F
  0.416667 -0.583333 -0.250000    0.00057870 108 t-inv F
 -0.583333  0.166667 -0.250000    0.00057870 108 t-inv F
  0.250000  0.250000 -0.250000    0.00057870 109 t-inv F
 -0.500000  0.250000  0.250000    0.00057870 109 t-inv F
  0.250000 -0.500000  0.250000    0.00057870 109 t-inv F
  0.250000 -0.500000 -0.250000    0.00057870 109 t-inv F
 -0.500000  0.250000 -0.250000    0.00057870 109 t-inv F
  0.250000  0.333333 -0.250000    0.00057870 110 t-inv F
 -0.583333  0.333333  0.250000    0.00057870 110 t-inv F
  0.250000 -0.583333  0.250000    0.00057870 110 t-inv F
  0.333333 -0.583333 -0.250000    0.00057870 110 t-inv F
 -0.583333  0.250000 -0.250000    0.00057870 110 t-inv F
 -0.416667 -0.250000 -0.250000    0.00057870 111 t-inv F
  0.666667 -0.250000  0.250000    0.00057870 111 t-inv F
 -0.416667  0.666667  0.250000    0.00057870 111 t-inv F
 -0.250000  0.666667 -0.250000    0.00057870 111 t-inv F
  0.666667 -0.416667 -0.250000    0.00057870 111 t-inv F
  0.333333  0.333333 -0.250000    0.00057870 112 t-inv F
 -0.000000 -0.000000 -0.333333    0.00057870 113 t-inv F
 -0.000000  0.083333 -0.333333    0.00057870 114 t-inv F
 -0.083333  0.083333  0.333333    0.00057870 114 t-inv F
 -0.000000 -0.083333  0.333333    0.00057870 114 t-inv F
  0.083333 -0.083333 -0.333333    0.00057870 114 t-inv F
 -0.083333 -0.000000 -0.333333    0.00057870 114 t-inv F
  0.083333 -0.000000 -0.333333    0.00057870 115 t-inv F
 -0.083333 -0.000000  0.333333    0.00057870 115 t-inv F
  0.083333 -0.083333  0.333333    0.00057870 115 t-inv F
 -0.000000 -0.083333 -0.333333    0.00057870 115 t-inv F
 -0.083333  0.083333 -0.333333    0.00057870 115 t-inv F
  0.000000  0.166667 -0.333333    0.00057870 116 t-inv F
 -0.166667  0.166667  0.333333    0.00057870 116 t-inv F
  0.000000 -0.166667  0.333333    0.00057870 116 t-inv F
  0.166667 -0.166667 -0.333333    0.00057870 116 t-inv F
 -0.166667  0.000000 -0.333333    0.00057870 116 t-inv F
  0.166667 -0.000000 -0.333333    0.00057870 117 t-inv F
 -0.166667 -0.000000  0.333333    0.00057870 117 t-inv F
  0.166667 -0.166667  0.333333    0.00057870 117 t-inv F
 -0.000000 -0.166667 -0.333333    0.00057870 117 t-inv F
 -0.166667  0.166667 -0.333333    0.00057870 117 t-inv F
  0.000000  0.250000 -0.333333    0.00057870 118 t-inv F
 -0.250000  0.250000  0.333333    0.00057870 118 t-inv F
  0.000000 -0.250000  0.333333    0.00057870 118 t-inv F
  0.250000 -0.250000 -0.333333    0.00057870 118 t-inv F
 -0.250000  0.000000 -0.333333    0.00057870 118 t-inv F
  0.250000 -0.000000 -0.333333    0.00057870 119 t-inv F
 -0.250000 -0.000000  0.333333    0.00057870 119 t-inv F
  0.250000 -0.250000  0.333333    0.00057870 119 t-inv F
 -0.000000 -0.250000 -0.333333    0.00057870 119 t-inv F
 -0.250000  0.250000 -0.333333    0.00057870 119 t-inv F
  0.000000  0.333333 -0.333333    0.00057870 120 t-inv F
 -0.333333  0.333333  0.333333    0.00057870 120 t-inv F
  0.000000 -0.333333  0.333333    0.00057870 120 t-inv F
  0.333333 -0.333333 -0.333333    0.00057870 120 t-inv F
 -0.333333  0.000000 -0.333333    0.00057870 120 t-inv F
  0.333333 -0.000000 -0.333333    0.00057870 121 t-inv F
 -0.333333 -0.000000  0.333333    0.00057870 121 t-inv F
  0.333333 -0.333333  0.333333    0.00057870 121 t-inv F
 -0.000000 -0.333333 -0.333333    0.00057870 121 t-inv F
 -0.333333  0.333333 -0.333333    0.00057870 121 t-inv F
 -0.000000  0.416667 -0.333333    0.00057870 122 t-inv F
 -0.416667  0.416667  0.333333    0.00057870 122 t-inv F
 -0.000000 -0.416667  0.333333    0.00057870 122 t-inv F
  0.416667 -0.416667 -0.333333    0.00057870 122 t-inv F
 -0.416667 -0.000000 -0.333333    0.00057870 122 t-inv F
  0.416667 -0.000000 -0.333333    0.00057870 123 t-inv F
 -0.416667 -0.000000  0.333333    0.00057870 123 t-inv F
  0.416667 -0.416667  0.333333    0.00057870 123 t-inv F
 -0.000000 -0.416667 -0.333333    0.00057870 123 t-inv F
 -0.416667  0.416667 -0.333333    0.00057870 123 t-inv F
 -0.000000  0.500000 -0.333333    0.00057870 124 t-inv F
 -0.500000  0.500000  0.333333    0.00057870 124 t-inv F
 -0.000000 -0.500000  0.333333    0.00057870 124 t-inv F
  0.500000 -0.500000 -0.333333    0.00057870 124 t-inv F
 -0.500000 -0.000000 -0.333333    0.00057870 124 t-inv F
  0.083333  0.083333 -0.333333    0.00057870 125 t-inv F
 -0.166667  0.083333  0.333333    0.00057870 125 t-inv F
  0.083333 -0.166667  0.333333    0.00057870 125 t-inv F
  0.083333 -0.166667 -0.333333    0.00057870 125 t-inv F
 -0.166667  0.083333 -0.333333    0.00057870 125 t-inv F
  0.083333  0.166667 -0.333333    0.00057870 126 t-inv F
 -0.250000  0.166667  0.333333    0.00057870 126 t-inv F
  0.083333 -0.250000  0.333333    0.00057870 126 t-inv F
  0.166667 -0.250000 -0.333333    0.00057870 126 t-inv F
 -0.250000  0.083333 -0.333333    0.00057870 126 t-inv F
  0.250000 -0.083333 -0.333333    0.00057870 127 t-inv F
 -0.166667 -0.083333  0.333333    0.00057870 127 t-inv F
  0.250000 -0.166667  0.333333    0.00057870 127 t-inv F
 -0.083333 -0.166667 -0.333333    0.00057870 127 t-inv F
 -0.166667  0.250000 -0.333333    0.00057870 127 t-inv F
  0.083333  0.250000 -0.333333    0.00057870 128 t-inv F
 -0.333333  0.250000  0.333333    0.00057870 128 t-inv F
  0.083333 -0.333333  0.333333    0.00057870 128 t-inv F
  0.250000 -0.333333 -0.333333    0.00057870 128 t-inv F
 -0.333333  0.083333 -0.333333    0.00057870 128 t-inv F
  0.333333 -0.083333 -0.333333    0.00057870 129 t-inv F
 -0.250000 -0.083333  0.333333    0.00057870 129 t-inv F
  0.333333 -0.250000  0.333333    0.00057870 129 t-inv F
 -0.083333 -0.250000 -0.333333    0.00057870 129 t-inv F
 -0.250000  0.333333 -0.333333    0.00057870 129 t-inv F
  0.083333  0.333333 -0.333333    0.00057870 130 t-inv F
 -0.416667  0.333333  0.333333    0.00057870 130 t-inv F
  0.083333 -0.416667  0.333333    0.00057870 130 t-inv F
  0.333333 -0.416667 -0.333333    0.00057870 130 t-inv F
 -0.416667  0.083333 -0.333333    0.00057870 130 t-inv F
  0.416667 -0.083333 -0.333333    0.00057870 131 t-inv F
 -0.333333 -0.083333  0.333333    0.00057870 131 t-inv F
  0.416667 -0.333333  0.333333    0.00057870 131 t-inv F
 -0.083333 -0.333333 -0.333333    0.00057870 131 t-inv F
 -0.333333  0.416667 -0.333333    0.00057870 131 t-inv F
  0.083333  0.416667 -0.333333    0.00057870 132 t-inv F
 -0.500000  0.416667  0.333333    0.00057870 132 t-inv F
  0.083333 -0.500000  0.333333    0.00057870 132 t-inv F
  0.416667 -0.500000 -0.333333    0.00057870 132 t-inv F
 -0.500000  0.083333 -0.333333    0.00057870 132 t-inv F
  0.500000 -0.083333 -0.333333    0.00057870 133 t-inv F
 -0.416667 -0.083333  0.333333    0.00057870 133 t-inv F
  0.500000 -0.416667  0.333333    0.00057870 133 t-inv F
 -0.083333 -0.416667 -0.333333    0.00057870 133 t-inv F
 -0.416667  0.500000 -0.333333    0.00057870 133 t-inv F
  0.166667  0.166667 -0.333333    0.00057870 134 t-inv F
 -0.333333  0.166667  0.333333    0.00057870 134 t-inv F
  0.166667 -0.333333  0.333333    0.00057870 134 t-inv F
  0.166667 -0.333333 -0.333333    0.00057870 134 t-inv F
 -0.333333  0.166667 -0.333333    0.00057870 134 t-inv F
  0.166667  0.250000 -0.333333    0.00057870 135 t-inv F
 -0.416667  0.250000  0.333333    0.00057870 135 t-inv F
  0.166667 -0.416667  0.333333    0.00057870 135 t-inv F
  0.250000 -0.416667 -0.333333    0.00057870 135 t-inv F
 -0.416667  0.166667 -0.333333    0.00057870 135 t-inv F
  0.416667 -0.166667 -0.333333    0.00057870 136 t-inv F
 -0.250000 -0.166667  0.333333    0.00057870 136 t-inv F
  0.416667 -0.250000  0.333333    0.00057870 136 t-inv F
 -0.166667 -0.250000 -0.333333    0.00057870 136 t-inv F
 -0.250000  0.416667 -0.333333    0.00057870 136 t-inv F
  0.166667  0.333333 -0.333333    0.00057870 137 t-inv F
 -0.500000  0.333333  0.333333    0.00057870 137 t-inv F
  0.166667 -0.500000  0.333333    0.00057870 137 t-inv F
  0.333333 -0.500000 -0.333333    0.00057870 137 t-inv F
 -0.500000  0.166667 -0.333333    0.00057870 137 t-inv F
  0.500000 -0.166667 -0.333333    0.00057870 138 t-inv F
 -0.333333 -0.166667  0.333333    0.00057870 138 t-inv F
  0.500000 -0.333333  0.333333    0.00057870 138 t-inv F
 -0.166667 -0.333333 -0.333333    0.00057870 138 t-inv F
 -0.333333  0.500000 -0.333333    0.00057870 138 t-inv F
  0.166667  0.416667 -0.333333    0.00057870 139 t-inv F
 -0.583333  0.416667  0.333333    0.00057870 139 t-inv F
  0.166667 -0.583333  0.333333    0.00057870 139 t-inv F
  0.416667 -0.583333 -0.333333    0.00057870 139 t-inv F
 -0.583333  0.166667 -0.333333    0.00057870 139 t-inv F
  0.250000  0.250000 -0.333333    0.00057870 140 t-inv F
 -0.500000  0.250000  0.333333    0.00057870 140 t-inv F
  0.250000 -0.500000  0.333333    0.00057870 140 t-inv F
  0.250000 -0.500000 -0.333333    0.00057870 140 t-inv F
 -0.500000  0.250000 -0.333333    0.00057870 140 t-inv F
  0.250000  0.333333 -0.333333    0.00057870 141 t-inv F
 -0.583333  0.333333  0.333333    0.00057870 141 t-inv F
  0.250000 -0.583333  0.333333    0.00057870 141 t-inv F
  0.333333 -0.583333 -0.333333    0.00057870 141 t-inv F
 -0.583333  0.250000 -0.333333    0.00057870 141 t-inv F
 -0.416667 -0.250000 -0.333333    0.00057870 142 t-inv F
  0.666667 -0.250000  0.333333    0.00057870 142 t-inv F
 -0.416667  0.666667  0.333333    0.00057870 142 t-inv F
 -0.250000  0.666667 -0.333333    0.00057870 142 t-inv F
  0.666667 -0.416667 -0.333333    0.00057870 142 t-inv F
  0.333333  0.333333 -0.333333    0.00057870 143 t-inv F
 -0.000000 -0.000000 -0.416667    0.00057870 144 t-inv F
  0.000000  0.083333 -0.416667    0.00057870 145 t-inv F
 -0.083333  0.083333  0.416667    0.00057870 145 t-inv F
  0.000000 -0.083333  0.416667    0.00057870 145 t-inv F
  0.083333 -0.083333 -0.416667    0.00057870 145 t-inv F
 -0.083333  0.000000 -0.416667    0.00057870 145 t-inv F
  0.083333 -0.000000 -0.416667    0.00057870 146 t-inv F
 -0.083333 -0.000000  0.416667    0.00057870 146 t-inv F
  0.083333 -0.083333  0.416667    0.00057870 146 t-inv F
 -0.000000 -0.083333 -0.416667    0.00057870 146 t-inv F
 -0.083333  0.083333 -0.416667    0.00057870 146 t-inv F
  0.000000  0.166667 -0.416667    0.00057870 147 t-inv F
 -0.166667  0.166667  0.416667    0.00057870 147 t-inv F
  0.000000 -0.166667  0.416667    0.00057870 147 t-inv F
  0.166667 -0.166667 -0.416667    0.00057870 147 t-inv F
 -0.166667  0.000000 -0.416667    0.00057870 147 t-inv F
  0.166667 -0.000000 -0.416667    0.00057870 148 t-inv F
 -0.166667 -0.000000  0.416667    0.00057870 148 t-inv F
  0.166667 -0.166667  0.416667    0.00057870 148 t-inv F
 -0.000000 -0.166667 -0.416667    0.00057870 148 t-inv F
 -0.166667  0.166667 -0.416667    0.00057870 148 t-inv F
  0.000000  0.250000 -0.416667    0.00057870 149 t-inv F
 -0.250000  0.250000  0.416667    0.00057870 149 t-inv F
  0.000000 -0.250000  0.416667    0.00057870 149 t-inv F
  0.250000 -0.250000 -0.416667    0.00057870 149 t-inv F
 -0.250000  0.000000 -0.416667    0.00057870 149 t-inv F
  0.250000 -0.000000 -0.416667    0.00057870 150 t-inv F
 -0.250000 -0.000000  0.416667    0.00057870 150 t-inv F
  0.250000 -0.250000  0.416667    0.00057870 150 t-inv F
 -0.000000 -0.250000 -0.416667    0.00057870 150 t-inv F
 -0.250000  0.250000 -0.416667    0.00057870 150 t-inv F
  0.000000  0.333333 -0.416667    0.00057870 151 t-inv F
 -0.333333  0.333333  0.416667    0.00057870 151 t-inv F
  0.000000 -0.333333  0.416667    0.00057870 151 t-inv F
  0.333333 -0.333333 -0.416667    0.00057870 151 t-inv F
 -0.333333  0.000000 -0.416667    0.00057870 151 t-inv F
[...]
      9       0.8787      2.00000
     10       3.3096      0.00000
     11       4.0108      0.00000
     12       4.4405      0.00000
     13       8.2755      0.00000
     14       8.8767      0.00000
     15       9.8909      0.00000
     16      10.2675      0.00000
     17      11.3213      0.00000
     18      12.4261      0.00000
     19      12.8271      0.00000
     20      13.6984      0.00000
     21      15.0286      0.00000
     22      15.4386      0.00000
     23      15.7247      0.00000
     24      16.0043      0.00000
     25      16.9973      0.00000
     26      17.6264      0.00000
     27      18.7750      0.00000
     28      18.8522      0.00000
     29      19.3601      0.00000
     30      20.3366      0.00000
     31      20.5456      0.00000
     32      21.4457      0.00000
     33      22.6536      0.00000
     34      23.5645      0.00000
     35      23.6131      0.00000
     36      23.8488      0.00000
     37      25.6131      0.00000
     38      26.1362      0.00000
     39      26.7014      0.00000
     40      26.9975      0.00000
     41      27.8411      0.00000
     42      28.3793      0.00000
     43      28.6282      0.00000
     44      28.6815      0.00000
     45      29.5176      0.00000
     46      29.7027      0.00000
     47      29.9878      0.00000
     48      30.8398      0.00000

 k-point   188 :       0.2500    0.1667    0.5000
  band No.  band energies     occupation 
      1     -12.2749      2.00000
      2     -12.2115      2.00000
      3      -8.3945      2.00000
      4      -3.4021      2.00000
      5      -2.3167      2.00000
      6      -2.2012      2.00000
      7       0.7702      2.00000
      8       0.8761      2.00000
      9       1.2242      2.00000
     10       3.2988      0.00000
     11       4.2212      0.00000
     12       4.6312      0.00000
     13       8.2057      0.00000
     14       9.1976      0.00000
     15       9.9082      0.00000
     16      10.6959      0.00000
     17      11.8541      0.00000
     18      12.6262      0.00000
     19      12.7497      0.00000
     20      13.8098      0.00000
     21      14.8333      0.00000
     22      14.9343      0.00000
     23      15.2383      0.00000
     24      16.2685      0.00000
     25      17.0063      0.00000
     26      17.8323      0.00000
     27      18.0942      0.00000
     28      19.0310      0.00000
     29      19.6465      0.00000
     30      19.9932      0.00000
     31      20.5341      0.00000
     32      21.0761      0.00000
     33      21.9859      0.00000
     34      23.2785      0.00000
     35      23.7965      0.00000
     36      24.6645      0.00000
     37      24.9667      0.00000
     38      25.1715      0.00000
     39      25.7289      0.00000
     40      26.2845      0.00000
     41      27.2233      0.00000
     42      27.8763      0.00000
     43      28.2794      0.00000
     44      29.1313      0.00000
     45      29.6105      0.00000
     46      30.0368      0.00000
     47      30.3465      0.00000
     48      31.1697      0.00000

 k-point   189 :       0.3333    0.1667    0.5000
  band No.  band energies     occupation 
      1     -12.2346      2.00000
      2     -12.1603      2.00000
      3      -8.5131      2.00000
      4      -3.5174      2.00000
      5      -2.4592      2.00000
      6      -2.3464      2.00000
      7       0.8019      2.00000
      8       0.8612      2.00000
      9       1.6086      2.00000
     10       3.2113      0.00000
     11       4.3763      0.00000
     12       4.6731      0.00000
     13       8.2309      0.00000
     14       9.4970      0.00000
     15      10.1400      0.00000
     16      10.9261      0.00000
     17      12.2247      0.00000
     18      12.5377      0.00000
     19      13.0451      0.00000
     20      13.3108      0.00000
     21      14.2773      0.00000
     22      14.7868      0.00000
     23      15.4528      0.00000
     24      16.5771      0.00000
     25      17.0199      0.00000
     26      17.3267      0.00000
     27      18.5900      0.00000
     28      18.9432      0.00000
     29      19.2803      0.00000
     30      20.0065      0.00000
     31      20.6709      0.00000
     32      21.3067      0.00000
     33      21.9590      0.00000
     34      22.3231      0.00000
     35      23.3372      0.00000
     36      23.8715      0.00000
     37      24.6501      0.00000
     38      25.2841      0.00000
     39      26.0023      0.00000
     40      26.5334      0.00000
     41      26.6459      0.00000
     42      27.4451      0.00000
     43      28.1372      0.00000
     44      28.7356      0.00000
     45      29.6352      0.00000
     46      29.8756      0.00000
     47      30.3010      0.00000
     48      30.8445      0.00000

 k-point   190 :       0.4167    0.1667    0.5000
  band No.  band energies     occupation 
      1     -12.2196      2.00000
      2     -12.1410      2.00000
      3      -8.5566      2.00000
      4      -3.5614      2.00000
      5      -2.5029      2.00000
      6      -2.4026      2.00000
      7       0.8208      2.00000
      8       0.8452      2.00000
      9       1.7911      2.00000
     10       3.1374      0.00000
     11       4.4484      0.00000
     12       4.6576      0.00000
     13       8.2542      0.00000
     14       9.6001      0.00000
     15      10.5452      0.00000
     16      10.7242      0.00000
     17      12.2300      0.00000
     18      12.4474      0.00000
     19      13.0967      0.00000
     20      13.6389      0.00000
     21      14.1756      0.00000
     22      14.2151      0.00000
     23      15.7054      0.00000
     24      16.3845      0.00000
     25      17.2883      0.00000
     26      17.3650      0.00000
     27      18.4478      0.00000
     28      18.6455      0.00000
     29      19.6986      0.00000
     30      20.3919      0.00000
     31      20.4877      0.00000
     32      21.0138      0.00000
     33      22.1261      0.00000
     34      22.2773      0.00000
     35      22.5696      0.00000
     36      23.9233      0.00000
     37      23.9706      0.00000
     38      25.7167      0.00000
     39      25.9516      0.00000
     40      26.3195      0.00000
     41      27.0980      0.00000
     42      27.4947      0.00000
     43      28.4366      0.00000
     44      28.6912      0.00000
     45      28.8819      0.00000
     46      29.5935      0.00000
     47      30.2916      0.00000
     48      30.5455      0.00000

 k-point   191 :       0.2500    0.2500    0.5000
  band No.  band energies     occupation 
      1     -12.2256      2.00000
      2     -12.1703      2.00000
      3      -8.5087      2.00000
      4      -3.4804      2.00000
      5      -2.5159      2.00000
      6      -2.4085      2.00000
      7       0.8785      2.00000
      8       1.2024      2.00000
      9       1.3519      2.00000
     10       3.1551      0.00000
     11       4.3543      0.00000
     12       4.6615      0.00000
     13       8.2657      0.00000
     14       9.4322      0.00000
     15       9.9936      0.00000
     16      10.9384      0.00000
     17      12.3931      0.00000
     18      12.5028      0.00000
     19      12.6950      0.00000
     20      13.3371      0.00000
     21      14.7540      0.00000
     22      15.0628      0.00000
     23      15.4433      0.00000
     24      16.2873      0.00000
     25      17.0806      0.00000
     26      17.8904      0.00000
     27      18.3330      0.00000
     28      18.8697      0.00000
     29      19.7550      0.00000
     30      19.8874      0.00000
     31      20.2410      0.00000
     32      20.2493      0.00000
     33      22.0728      0.00000
     34      22.8766      0.00000
     35      23.1411      0.00000
     36      24.2096      0.00000
     37      24.3540      0.00000
     38      25.0357      0.00000
     39      25.9124      0.00000
     40      26.2310      0.00000
     41      26.8689      0.00000
     42      27.4082      0.00000
     43      28.6763      0.00000
     44      29.0606      0.00000
     45      29.3999      0.00000
     46      29.7375      0.00000
     47      31.1704      0.00000
     48      31.7149      0.00000

 k-point   192 :       0.3333    0.2500    0.5000
  band No.  band energies     occupation 
      1     -12.1928      2.00000
      2     -12.1495      2.00000
      3      -8.5736      2.00000
      4      -3.5223      2.00000
      5      -2.6140      2.00000
      6      -2.5459      2.00000
      7       0.9207      2.00000
      8       1.2807      2.00000
      9       1.6673      2.00000
     10       2.9707      0.00000
     11       4.4528      0.00000
     12       4.6136      0.00000
     13       8.3737      0.00000
     14       9.6011      0.00000
     15      10.2433      0.00000
     16      10.7195      0.00000
     17      12.0895      0.00000
     18      12.2657      0.00000
     19      13.2277      0.00000
     20      13.8581      0.00000
     21      14.5862      0.00000
     22      14.9459      0.00000
     23      15.5799      0.00000
     24      16.1478      0.00000
     25      17.0545      0.00000
     26      17.6128      0.00000
     27      18.5673      0.00000
     28      19.1617      0.00000
     29      19.3093      0.00000
     30      19.8973      0.00000
     31      20.2795      0.00000
     32      20.9104      0.00000
     33      21.4801      0.00000
     34      22.2927      0.00000
     35      22.8223      0.00000
     36      23.2317      0.00000
     37      23.9505      0.00000
     38      24.7665      0.00000
     39      26.3606      0.00000
     40      26.9086      0.00000
     41      27.3124      0.00000
     42      27.5525      0.00000
     43      28.3880      0.00000
     44      28.7599      0.00000
     45      29.1097      0.00000
     46      29.2050      0.00000
     47      31.0323      0.00000
     48      31.5461      0.00000

 k-point   193 :       0.3333    0.3333    0.5000
  band No.  band energies     occupation 
      1     -12.1615      2.00000
      2     -12.1615      2.00000
      3      -8.5950      2.00000
      4      -3.5168      2.00000
      5      -2.6497      2.00000
      6      -2.6497      2.00000
      7       0.9541      2.00000
      8       1.6020      2.00000
      9       1.6020      2.00000
     10       2.8183      0.00000
     11       4.5307      0.00000
     12       4.5307      0.00000
     13       8.4722      0.00000
     14       9.6607      0.00000
     15      10.4047      0.00000
     16      10.4047      0.00000
     17      11.9850      0.00000
     18      11.9850      0.00000
     19      13.6541      0.00000
     20      14.6132      0.00000
     21      14.6132      0.00000
     22      15.0847      0.00000
     23      15.4548      0.00000
     24      15.4548      0.00000
     25      17.3128      0.00000
     26      17.3128      0.00000
     27      18.9336      0.00000
     28      19.2662      0.00000
     29      19.4036      0.00000
     30      19.4036      0.00000
     31      20.8499      0.00000
     32      21.1407      0.00000
     33      21.1408      0.00000
     34      21.5781      0.00000
     35      22.6336      0.00000
     36      22.6336      0.00000
     37      24.2534      0.00000
     38      24.2534      0.00000
     39      26.5667      0.00000
     40      27.4271      0.00000
     41      27.6987      0.00000
     42      27.6987      0.00000
     43      28.3014      0.00000
     44      28.6434      0.00000
     45      28.8592      0.00000
     46      28.8594      0.00000
     47      31.2868      0.00000
     48      31.2868      0.00000


--------------------------------------------------------------------------------------------------------


 soft charge-density along one line, spin component           1
         0         1         2         3         4         5         6         7         8         9
 total charge-density along one line
 
 pseudopotential strength for first ion, spin component:           1
 29.259  33.284   0.000  -0.000  -0.081   0.000  -0.000  -0.117
 33.284  37.869   0.000  -0.000  -0.093   0.000  -0.000  -0.133
  0.000   0.000   6.880   0.014   0.000   9.694   0.020   0.000
 -0.000  -0.000   0.014   6.903   0.000   0.020   9.725   0.000
 -0.081  -0.093   0.000   0.000   6.901   0.000   0.000   9.723
  0.000   0.000   9.694   0.020   0.000  13.692   0.028   0.000
 -0.000  -0.000   0.020   9.725   0.000   0.028  13.735   0.000
 -0.117  -0.133   0.000   0.000   9.723   0.000   0.000  13.732
  0.000   0.000  -0.021  -0.000   0.000  -0.029  -0.001   0.000
  0.024   0.027   0.000  -0.000  -0.000   0.000  -0.000  -0.001
  0.011   0.013  -0.000  -0.000   0.011  -0.000  -0.000   0.016
  0.000   0.000  -0.000  -0.021   0.000  -0.001  -0.029   0.000
  0.017   0.020  -0.000  -0.000  -0.020  -0.000  -0.000  -0.028
 total augmentation occupancy for first ion, spin component:           1
  6.476  -4.092   0.000  -0.000  -1.888   0.000   0.000   0.498  -0.000   0.191   0.108   0.000   0.097
 -4.092   3.740   0.000   0.000   1.855   0.000  -0.000  -0.457   0.000  -0.161  -0.092  -0.000  -0.080
 -0.000   0.000   2.174   0.098   0.000  -0.241  -0.165  -0.000  -0.095  -0.000   0.000  -0.065  -0.000
 -0.000   0.000   0.098   2.303   0.000  -0.165  -0.489  -0.000  -0.061  -0.000  -0.000  -0.189  -0.000
 -1.888   1.855   0.000   0.000   2.212  -0.000  -0.000  -0.438  -0.000  -0.080  -0.023  -0.000  -0.088
  0.000   0.000  -0.241  -0.165  -0.000   0.062   0.056   0.000   0.019   0.000  -0.000   0.020   0.000
  0.000  -0.000  -0.165  -0.489  -0.000   0.056   0.144   0.000   0.022   0.000   0.000   0.051   0.000
  0.498  -0.457  -0.000  -0.000  -0.438   0.000   0.000   0.119  -0.000   0.017   0.003   0.000   0.020
 -0.000   0.000  -0.095  -0.061   0.000   0.019   0.022  -0.000   0.010  -0.000  -0.000   0.012   0.000
  0.191  -0.161  -0.000  -0.000  -0.080   0.000   0.000   0.017  -0.000   0.016   0.008   0.000  -0.002
  0.108  -0.092   0.000  -0.000  -0.023  -0.000   0.000   0.003  -0.000   0.008   0.013   0.000  -0.003
  0.000  -0.000  -0.065  -0.189  -0.000   0.020   0.051   0.000   0.012   0.000   0.000   0.031   0.000
  0.097  -0.080  -0.000  -0.000  -0.088   0.000   0.000   0.020   0.000  -0.002  -0.003   0.000   0.011


------------------------ aborting loop because EDIFF is reached ----------------------------------------


    CHARGE:  cpu time      0.0145: real time      0.0145
    FORLOC:  cpu time      0.0001: real time      0.0002
    FORNL :  cpu time      0.0497: real time      0.0498
    STRESS:  cpu time      0.4415: real time      0.4415
    FORCOR:  cpu time      0.0019: real time      0.0021
    FORHAR:  cpu time      0.0005: real time      0.0006
    MIXING:  cpu time      0.0005: real time      0.0006
    OFIELD:  cpu time      0.0000: real time      0.0001

  FORCE on cell =-STRESS in cart. coord.  units (eV):
  Direction    XX          YY          ZZ          XY          YZ          ZX
  --------------------------------------------------------------------------------------
  Alpha Z    35.05468    35.05468    35.05468
  Ewald    -259.20675  -259.20675  -155.90515    -0.00000     0.00000    -0.00000
  Hartree    21.81429    21.81428    61.30832    -0.00000     0.00001    -0.00001
  E(xc)     -66.12643   -66.12647   -65.55351    -0.00004    -0.00000    -0.00000
  Local     -57.37707   -57.37842  -186.13988    -0.00114    -0.00024    -0.00010
  n-local   125.77333   126.14795   124.83048     0.08234    -0.25956    -0.37814
  augment   -13.29806   -13.29748   -12.00366     0.00050    -0.00013     0.00028
  Kinetic   213.49647   212.76732   198.35746    -2.96312    -0.16803     0.74736
  Fock        0.00000     0.00000     0.00000     0.00000     0.00000     0.00000
  -------------------------------------------------------------------------------------
  Total      -0.04721    -0.04721    -0.05126     0.00000    -0.00000     0.00000
  in kB      -0.84484    -0.84484    -0.91736     0.00000    -0.00000     0.00000
  external pressure =       -0.87 kB  Pullay stress =        0.00 kB


 VOLUME and BASIS-vectors are now :
 -----------------------------------------------------------------------------
  energy-cutoff  :      275.02
  volume of cell :       89.53
      direct lattice vectors                 reciprocal lattice vectors
     4.524640000  0.000000000  0.000000000     0.221012058  0.127601371  0.000000000
    -2.262320000  3.918453183  0.000000000     0.000000000  0.255202743  0.000000000
     0.000000000  0.000000000  5.049780000    -0.000000000 -0.000000000  0.198028429

  length of vectors
     4.524640000  4.524640000  5.049780000     0.255202743  0.255202743  0.198028429


 FORCES acting on ions
    electron-ion (+dipol)            ewald-force                    non-local-force                 convergence-correction
 -----------------------------------------------------------------------------------------------
   -.485E+02 0.970E-06 0.335E-04   0.529E+02 -.255E-11 -.597E-11   -.438E+01 -.341E-16 -.286E-15   -.144E-02 -.336E-08 0.476E-09
   0.242E+02 -.420E+02 -.359E-04   -.264E+02 0.458E+02 0.598E-11   0.219E+01 -.380E+01 -.289E-15   0.719E-03 -.125E-02 -.434E-09
   0.242E+02 0.420E+02 0.337E-05   -.264E+02 -.458E+02 -.710E-14   0.219E+01 0.380E+01 0.638E-15   0.719E-03 0.125E-02 -.404E-10
 -----------------------------------------------------------------------------------------------
   -.168E-04 -.264E-04 0.106E-05   0.000E+00 0.000E+00 0.323E-17   0.000E+00 0.000E+00 0.627E-16   0.958E-09 0.182E-08 0.125E-11
 
 
 POSITION                                       TOTAL-FORCE (eV/Angst)
 -----------------------------------------------------------------------------------
      0.99103      0.00000      1.68326        -0.004948     -0.000000     -0.000000
     -0.49552      0.85826      3.36652         0.002474     -0.004285     -0.000000
      1.76680      3.06019      0.00000         0.002474      0.004285      0.000000
 -----------------------------------------------------------------------------------
    total drift:                               -0.000017     -0.000026      0.000001


--------------------------------------------------------------------------------------------------------



  FREE ENERGIE OF THE ION-ELECTRON SYSTEM (eV)
  ---------------------------------------------------
  free  energy   TOTEN  =       -10.49221619 eV

  energy  without entropy=      -10.49221619  energy(sigma->0) =      -10.49221619
 


--------------------------------------------------------------------------------------------------------


    POTLOK:  cpu time      0.0038: real time      0.0038


--------------------------------------------------------------------------------------------------------


 writing wavefunctions
     LOOP+:  cpu time     22.5145: real time     22.5364
    4ORBIT:  cpu time      0.0000: real time      0.0000

 total amount of memory used by VASP MPI-rank0    52872. kBytes
=======================================================================

   base      :      30000. kBytes
   nonl-proj :      19315. kBytes
   fftplans  :         86. kBytes
   grid      :        335. kBytes
   one-center:         24. kBytes
   wavefun   :       3112. kBytes
 
  
  
 General timing and accounting informations for this job:
 ========================================================
  
                  Total CPU time used (sec):       23.583
                            User time (sec):       23.095
                          System time (sec):        0.488
                         Elapsed time (sec):       24.070
  
                   Maximum memory used (kb):      239660.
                   Average memory used (kb):          N/A
  
                          Minor page faults:        24221
                          Major page faults:            0
                 Voluntary context switches:         3826
