 DBCSR| CPU Multiplication driver                                           BLAS (U)
 DBCSR| Multrec recursion limit                                              512 (U)
 DBCSR| Multiplication stack size                                           1000 (D)
 DBCSR| Maximum elements for images                                    UNLIMITED (U)
 DBCSR| Multiplicative factor virtual images                                   1 (U)
 DBCSR| Use multiplication densification                                       T (D)
 DBCSR| Multiplication size stacks                                             3 (U)
 DBCSR| Use memory pool for CPU allocation                                     F (U)
 DBCSR| Number of 3D layers                                               SINGLE (U)
 DBCSR| Use MPI memory allocation                                              F (U)
 DBCSR| Use RMA algorithm                                                      F (U)
 DBCSR| Use Communication thread                                               T (U)
 DBCSR| Communication thread load                                             45 (D)
 DBCSR| MPI: My process id                                                     0
 DBCSR| MPI: Number of processes                                              16
 DBCSR| OMP: Current number of threads                                        12
 DBCSR| OMP: Max number of threads                                            12
 DBCSR| Split modifier for TAS multiplication algorithm                  1.0E+00 (U)


  **** **** ******  **  PROGRAM STARTED AT               2025-08-07 22:19:32.185
 ***** ** ***  *** **   PROGRAM STARTED ON                          i04r10c05s03
 **    ****   ******    PROGRAM STARTED BY                               di38fab
 ***** **    ** ** **   PROGRAM PROCESS ID                               1026076
  **** **  *******  **  PROGRAM STARTED IN /hppfs/scratch/04/di38fab/09_GTH/Delt
                                           a_Set/Ta/aug-TZVP-MOLOPT-GTH-tier-1/1
                                           2x12x12

 CP2K| version string:                 CP2K version 2025.1 (Development Version)
 CP2K| source code revision number:                                  git:3130539
 CP2K| cp2kflags: omp libint fftw3 libxc parallel scalapack max_contr=4         
 CP2K| is freely available from                            https://www.cp2k.org/
 CP2K| Program compiled at                         Tue Jun  3 16:14:32 CEST 2025
 CP2K| Program compiled on                                               login01
 CP2K| Program compiled for                                        Supermuc-foss
 CP2K| Data directory path                  /hppfs/work/pn36zo/di38fab/cp2k/data
 CP2K| Input file name                                                    GW.inp

 GLOBAL| Force Environment number                                              1
 GLOBAL| Basis set file name            /hppfs/scratch/04/di38fab/09_GTH/BASIS_A
 GLOBAL| Potential file name            /hppfs/work/pn36zo/di38fab/cp2k/data/GTH
 GLOBAL| MM Potential file name                                     MM_POTENTIAL
 GLOBAL| Coordinate file name                                             Ta.cif
 GLOBAL| Method name                                                        CP2K
 GLOBAL| Project name                                                       WSe2
 GLOBAL| Run type                                                         ENERGY
 GLOBAL| FFT library                                                       FFTW3
 GLOBAL| Diagonalization library                                       ScaLAPACK
 GLOBAL| Cholesky decomposition library                                ScaLAPACK
 GLOBAL| DGEMM library                                                      BLAS
 GLOBAL| Orthonormality check for eigenvectors                          DISABLED
 GLOBAL| Matrix multiplication library                                 ScaLAPACK
 GLOBAL| All-to-all communication in single precision                          F
 GLOBAL| FFTs using library dependent lengths                                  F
 GLOBAL| Grid backend                                                       AUTO
 GLOBAL| Global print level                                               MEDIUM
 GLOBAL| MPI I/O enabled                                                       T
 GLOBAL| Total number of message passing processes                            16
 GLOBAL| Number of threads for this process                                   12
 GLOBAL| This output is from process                                           0
 GLOBAL| OpenMP stack size per thread (OMP_STACKSIZE)                    default
 GLOBAL| CPU model name             Intel(R) Xeon(R) Platinum 8174 CPU @ 3.10GHz

 MEMORY| system memory details [Kb]
 MEMORY|                        rank 0           min           max       average
 MEMORY| MemTotal             98436708      98436708      98436708      98436708
 MEMORY| MemFree              84446680      84377388      84593944      84496652
 MEMORY| Buffers                     0             0             0             0
 MEMORY| Cached                2397316       2382188       2406520       2394501
 MEMORY| Slab                  1287116       1272120       1287116       1280258
 MEMORY| SReclaimable           274592        271356        275648        273497
 MEMORY| MemLikelyFree        87118588      87055264      87248524      87164650


 *** Fundamental physical constants (SI units) ***

 *** Literature: B. J. Mohr and B. N. Taylor,
 ***             CODATA recommended values of the fundamental physical
 ***             constants: 2006, Web Version 5.1
 ***             http://physics.nist.gov/constants

 Speed of light in vacuum [m/s]                             2.99792458000000E+08
 Magnetic constant or permeability of vacuum [N/A**2]       1.25663706143592E-06
 Electric constant or permittivity of vacuum [F/m]          8.85418781762039E-12
 Planck constant (h) [J*s]                                  6.62606896000000E-34
 Planck constant (h-bar) [J*s]                              1.05457162825177E-34
 Elementary charge [C]                                      1.60217648700000E-19
 Electron mass [kg]                                         9.10938215000000E-31
 Electron g factor [ ]                                     -2.00231930436220E+00
 Proton mass [kg]                                           1.67262163700000E-27
 Fine-structure constant                                    7.29735253760000E-03
 Rydberg constant [1/m]                                     1.09737315685270E+07
 Avogadro constant [1/mol]                                  6.02214179000000E+23
 Boltzmann constant [J/K]                                   1.38065040000000E-23
 Atomic mass unit [kg]                                      1.66053878200000E-27
 Bohr radius [m]                                            5.29177208590000E-11

 *** Conversion factors ***

 [u] -> [a.u.]                                              1.82288848426455E+03
 [Angstrom] -> [Bohr] = [a.u.]                              1.88972613288564E+00
 [a.u.] = [Bohr] -> [Angstrom]                              5.29177208590000E-01
 [a.u.] -> [s]                                              2.41888432650478E-17
 [a.u.] -> [fs]                                             2.41888432650478E-02
 [a.u.] -> [J]                                              4.35974393937059E-18
 [a.u.] -> [N]                                              8.23872205491840E-08
 [a.u.] -> [K]                                              3.15774647902944E+05
 [a.u.] -> [kJ/mol]                                         2.62549961709828E+03
 [a.u.] -> [kcal/mol]                                       6.27509468713739E+02
 [a.u.] -> [Pa]                                             2.94210107994716E+13
 [a.u.] -> [bar]                                            2.94210107994716E+08
 [a.u.] -> [atm]                                            2.90362800883016E+08
 [a.u.] -> [eV]                                             2.72113838565563E+01
 [a.u.] -> [Hz]                                             6.57968392072181E+15
 [a.u.] -> [1/cm] (wave numbers)                            2.19474631370540E+05
 [a.u./Bohr**2] -> [1/cm]                                   5.14048714338585E+03
 

 CELL_TOP| Volume [angstrom^3]:                                        36.650280
 CELL_TOP| Vector a [angstrom     3.322     0.000     0.000   |a| =     3.321690
 CELL_TOP| Vector b [angstrom     0.000     3.322     0.000   |b| =     3.321690
 CELL_TOP| Vector c [angstrom     0.000     0.000     3.322   |c| =     3.321690
 CELL_TOP| Angle (b,c), alpha [degree]:                                90.000000
 CELL_TOP| Angle (a,c), beta  [degree]:                                90.000000
 CELL_TOP| Angle (a,b), gamma [degree]:                                90.000000
 CELL_TOP| Numerically orthorhombic:                                         YES
 CELL_TOP| Periodicity                                                       XYZ

 CELL_CIF| Volume [angstrom^3]:                                        36.650280
 CELL_CIF| Vector a [angstrom     3.322     0.000     0.000   |a| =     3.321690
 CELL_CIF| Vector b [angstrom     0.000     3.322     0.000   |b| =     3.321690
 CELL_CIF| Vector c [angstrom     0.000     0.000     3.322   |c| =     3.321690
 CELL_CIF| Angle (b,c), alpha [degree]:                                90.000000
 CELL_CIF| Angle (a,c), beta  [degree]:                                90.000000
 CELL_CIF| Angle (a,b), gamma [degree]:                                90.000000
 CELL_CIF| Numerically orthorhombic:                                         YES
 CELL_CIF| Periodicity                                                       XYZ

 GENERATE|  Preliminary Number of Bonds generated:                             0
 GENERATE|  Achieved consistency in connectivity generation.

 CELL| Volume [angstrom^3]:                                            36.650280
 CELL| Vector a [angstrom]:       3.322     0.000     0.000   |a| =     3.321690
 CELL| Vector b [angstrom]:       0.000     3.322     0.000   |b| =     3.321690
 CELL| Vector c [angstrom]:       0.000     0.000     3.322   |c| =     3.321690
 CELL| Angle (b,c), alpha [degree]:                                    90.000000
 CELL| Angle (a,c), beta  [degree]:                                    90.000000
 CELL| Angle (a,b), gamma [degree]:                                    90.000000
 CELL| Numerically orthorhombic:                                             YES
 CELL| Periodicity                                                           XYZ

 CELL_REF| Volume [angstrom^3]:                                        36.650280
 CELL_REF| Vector a [angstrom     3.322     0.000     0.000   |a| =     3.321690
 CELL_REF| Vector b [angstrom     0.000     3.322     0.000   |b| =     3.321690
 CELL_REF| Vector c [angstrom     0.000     0.000     3.322   |c| =     3.321690
 CELL_REF| Angle (b,c), alpha [degree]:                                90.000000
 CELL_REF| Angle (a,c), beta  [degree]:                                90.000000
 CELL_REF| Angle (a,b), gamma [degree]:                                90.000000
 CELL_REF| Numerically orthorhombic:                                         YES
 CELL_REF| Periodicity                                                       XYZ

 *** WARNING in cryssym.F:180 :: Symmetry library SPGLIB not available ***


 *******************************************************************************
                                    Kpoints
 *******************************************************************************
 BRILLOUIN| K-point scheme                                        Monkhorst-Pack
 BRILLOUIN| K-Point grid                                            12   12   12
 BRILLOUIN| Accuracy in Symmetry determination                      0.100000E-05
 BRILLOUIN| K-Point point group symmetrization                               OFF
 BRILLOUIN| Wavefunction type                                            COMPLEX
 BRILLOUIN| List of Kpoints [2 Pi/Bohr]                                      864
 BRILLOUIN| Number           Weight            X              Y              Z
 BRILLOUIN|     1           0.00116       -0.45833       -0.45833       -0.45833
 BRILLOUIN|     2           0.00116       -0.45833       -0.45833       -0.37500
 BRILLOUIN|     3           0.00116       -0.45833       -0.45833       -0.29167
 BRILLOUIN|     4           0.00116       -0.45833       -0.45833       -0.20833
 BRILLOUIN|     5           0.00116       -0.45833       -0.45833       -0.12500
 BRILLOUIN|     6           0.00116       -0.45833       -0.45833       -0.04167
 BRILLOUIN|     7           0.00116       -0.45833       -0.45833        0.04167
 BRILLOUIN|     8           0.00116       -0.45833       -0.45833        0.12500
 BRILLOUIN|     9           0.00116       -0.45833       -0.45833        0.20833
 BRILLOUIN|    10           0.00116       -0.45833       -0.45833        0.29167
 BRILLOUIN|    11           0.00116       -0.45833       -0.45833        0.37500
 BRILLOUIN|    12           0.00116       -0.45833       -0.45833        0.45833
 BRILLOUIN|    13           0.00116       -0.45833       -0.37500       -0.45833
 BRILLOUIN|    14           0.00116       -0.45833       -0.37500       -0.37500
 BRILLOUIN|    15           0.00116       -0.45833       -0.37500       -0.29167
 BRILLOUIN|    16           0.00116       -0.45833       -0.37500       -0.20833
 BRILLOUIN|    17           0.00116       -0.45833       -0.37500       -0.12500
 BRILLOUIN|    18           0.00116       -0.45833       -0.37500       -0.04167
 BRILLOUIN|    19           0.00116       -0.45833       -0.37500        0.04167
 BRILLOUIN|    20           0.00116       -0.45833       -0.37500        0.12500
 BRILLOUIN|    21           0.00116       -0.45833       -0.37500        0.20833
 BRILLOUIN|    22           0.00116       -0.45833       -0.37500        0.29167
 BRILLOUIN|    23           0.00116       -0.45833       -0.37500        0.37500
 BRILLOUIN|    24           0.00116       -0.45833       -0.37500        0.45833
 BRILLOUIN|    25           0.00116       -0.45833       -0.29167       -0.45833
 BRILLOUIN|    26           0.00116       -0.45833       -0.29167       -0.37500
 BRILLOUIN|    27           0.00116       -0.45833       -0.29167       -0.29167
 BRILLOUIN|    28           0.00116       -0.45833       -0.29167       -0.20833
 BRILLOUIN|    29           0.00116       -0.45833       -0.29167       -0.12500
 BRILLOUIN|    30           0.00116       -0.45833       -0.29167       -0.04167
 BRILLOUIN|    31           0.00116       -0.45833       -0.29167        0.04167
 BRILLOUIN|    32           0.00116       -0.45833       -0.29167        0.12500
 BRILLOUIN|    33           0.00116       -0.45833       -0.29167        0.20833
 BRILLOUIN|    34           0.00116       -0.45833       -0.29167        0.29167
 BRILLOUIN|    35           0.00116       -0.45833       -0.29167        0.37500
 BRILLOUIN|    36           0.00116       -0.45833       -0.29167        0.45833
 BRILLOUIN|    37           0.00116       -0.45833       -0.20833       -0.45833
 BRILLOUIN|    38           0.00116       -0.45833       -0.20833       -0.37500
 BRILLOUIN|    39           0.00116       -0.45833       -0.20833       -0.29167
 BRILLOUIN|    40           0.00116       -0.45833       -0.20833       -0.20833
 BRILLOUIN|    41           0.00116       -0.45833       -0.20833       -0.12500
 BRILLOUIN|    42           0.00116       -0.45833       -0.20833       -0.04167
 BRILLOUIN|    43           0.00116       -0.45833       -0.20833        0.04167
 BRILLOUIN|    44           0.00116       -0.45833       -0.20833        0.12500
 BRILLOUIN|    45           0.00116       -0.45833       -0.20833        0.20833
 BRILLOUIN|    46           0.00116       -0.45833       -0.20833        0.29167
 BRILLOUIN|    47           0.00116       -0.45833       -0.20833        0.37500
 BRILLOUIN|    48           0.00116       -0.45833       -0.20833        0.45833
 BRILLOUIN|    49           0.00116       -0.45833       -0.12500       -0.45833
 BRILLOUIN|    50           0.00116       -0.45833       -0.12500       -0.37500
 BRILLOUIN|    51           0.00116       -0.45833       -0.12500       -0.29167
 BRILLOUIN|    52           0.00116       -0.45833       -0.12500       -0.20833
 BRILLOUIN|    53           0.00116       -0.45833       -0.12500       -0.12500
 BRILLOUIN|    54           0.00116       -0.45833       -0.12500       -0.04167
 BRILLOUIN|    55           0.00116       -0.45833       -0.12500        0.04167
 BRILLOUIN|    56           0.00116       -0.45833       -0.12500        0.12500
 BRILLOUIN|    57           0.00116       -0.45833       -0.12500        0.20833
 BRILLOUIN|    58           0.00116       -0.45833       -0.12500        0.29167
 BRILLOUIN|    59           0.00116       -0.45833       -0.12500        0.37500
 BRILLOUIN|    60           0.00116       -0.45833       -0.12500        0.45833
 BRILLOUIN|    61           0.00116       -0.45833       -0.04167       -0.45833
 BRILLOUIN|    62           0.00116       -0.45833       -0.04167       -0.37500
 BRILLOUIN|    63           0.00116       -0.45833       -0.04167       -0.29167
 BRILLOUIN|    64           0.00116       -0.45833       -0.04167       -0.20833
 BRILLOUIN|    65           0.00116       -0.45833       -0.04167       -0.12500
 BRILLOUIN|    66           0.00116       -0.45833       -0.04167       -0.04167
 BRILLOUIN|    67           0.00116       -0.45833       -0.04167        0.04167
 BRILLOUIN|    68           0.00116       -0.45833       -0.04167        0.12500
 BRILLOUIN|    69           0.00116       -0.45833       -0.04167        0.20833
 BRILLOUIN|    70           0.00116       -0.45833       -0.04167        0.29167
 BRILLOUIN|    71           0.00116       -0.45833       -0.04167        0.37500
 BRILLOUIN|    72           0.00116       -0.45833       -0.04167        0.45833
 BRILLOUIN|    73           0.00116       -0.45833        0.04167       -0.45833
 BRILLOUIN|    74           0.00116       -0.45833        0.04167       -0.37500
 BRILLOUIN|    75           0.00116       -0.45833        0.04167       -0.29167
 BRILLOUIN|    76           0.00116       -0.45833        0.04167       -0.20833
 BRILLOUIN|    77           0.00116       -0.45833        0.04167       -0.12500
 BRILLOUIN|    78           0.00116       -0.45833        0.04167       -0.04167
 BRILLOUIN|    79           0.00116       -0.45833        0.04167        0.04167
 BRILLOUIN|    80           0.00116       -0.45833        0.04167        0.12500
 BRILLOUIN|    81           0.00116       -0.45833        0.04167        0.20833
 BRILLOUIN|    82           0.00116       -0.45833        0.04167        0.29167
 BRILLOUIN|    83           0.00116       -0.45833        0.04167        0.37500
 BRILLOUIN|    84           0.00116       -0.45833        0.04167        0.45833
 BRILLOUIN|    85           0.00116       -0.45833        0.12500       -0.45833
 BRILLOUIN|    86           0.00116       -0.45833        0.12500       -0.37500
 BRILLOUIN|    87           0.00116       -0.45833        0.12500       -0.29167
 BRILLOUIN|    88           0.00116       -0.45833        0.12500       -0.20833
 BRILLOUIN|    89           0.00116       -0.45833        0.12500       -0.12500
 BRILLOUIN|    90           0.00116       -0.45833        0.12500       -0.04167
 BRILLOUIN|    91           0.00116       -0.45833        0.12500        0.04167
 BRILLOUIN|    92           0.00116       -0.45833        0.12500        0.12500
 BRILLOUIN|    93           0.00116       -0.45833        0.12500        0.20833
 BRILLOUIN|    94           0.00116       -0.45833        0.12500        0.29167
 BRILLOUIN|    95           0.00116       -0.45833        0.12500        0.37500
 BRILLOUIN|    96           0.00116       -0.45833        0.12500        0.45833
 BRILLOUIN|    97           0.00116       -0.45833        0.20833       -0.45833
 BRILLOUIN|    98           0.00116       -0.45833        0.20833       -0.37500
 BRILLOUIN|    99           0.00116       -0.45833        0.20833       -0.29167
 BRILLOUIN|   100           0.00116       -0.45833        0.20833       -0.20833
 BRILLOUIN|   101           0.00116       -0.45833        0.20833       -0.12500
 BRILLOUIN|   102           0.00116       -0.45833        0.20833       -0.04167
 BRILLOUIN|   103           0.00116       -0.45833        0.20833        0.04167
 BRILLOUIN|   104           0.00116       -0.45833        0.20833        0.12500
 BRILLOUIN|   105           0.00116       -0.45833        0.20833        0.20833
 BRILLOUIN|   106           0.00116       -0.45833        0.20833        0.29167
 BRILLOUIN|   107           0.00116       -0.45833        0.20833        0.37500
 BRILLOUIN|   108           0.00116       -0.45833        0.20833        0.45833
 BRILLOUIN|   109           0.00116       -0.45833        0.29167       -0.45833
 BRILLOUIN|   110           0.00116       -0.45833        0.29167       -0.37500
 BRILLOUIN|   111           0.00116       -0.45833        0.29167       -0.29167
 BRILLOUIN|   112           0.00116       -0.45833        0.29167       -0.20833
 BRILLOUIN|   113           0.00116       -0.45833        0.29167       -0.12500
 BRILLOUIN|   114           0.00116       -0.45833        0.29167       -0.04167
 BRILLOUIN|   115           0.00116       -0.45833        0.29167        0.04167
 BRILLOUIN|   116           0.00116       -0.45833        0.29167        0.12500
 BRILLOUIN|   117           0.00116       -0.45833        0.29167        0.20833
 BRILLOUIN|   118           0.00116       -0.45833        0.29167        0.29167
 BRILLOUIN|   119           0.00116       -0.45833        0.29167        0.37500
 BRILLOUIN|   120           0.00116       -0.45833        0.29167        0.45833
 BRILLOUIN|   121           0.00116       -0.45833        0.37500       -0.45833
 BRILLOUIN|   122           0.00116       -0.45833        0.37500       -0.37500
 BRILLOUIN|   123           0.00116       -0.45833        0.37500       -0.29167
 BRILLOUIN|   124           0.00116       -0.45833        0.37500       -0.20833
 BRILLOUIN|   125           0.00116       -0.45833        0.37500       -0.12500
 BRILLOUIN|   126           0.00116       -0.45833        0.37500       -0.04167
 BRILLOUIN|   127           0.00116       -0.45833        0.37500        0.04167
 BRILLOUIN|   128           0.00116       -0.45833        0.37500        0.12500
 BRILLOUIN|   129           0.00116       -0.45833        0.37500        0.20833
 BRILLOUIN|   130           0.00116       -0.45833        0.37500        0.29167
 BRILLOUIN|   131           0.00116       -0.45833        0.37500        0.37500
 BRILLOUIN|   132           0.00116       -0.45833        0.37500        0.45833
 BRILLOUIN|   133           0.00116       -0.45833        0.45833       -0.45833
 BRILLOUIN|   134           0.00116       -0.45833        0.45833       -0.37500
 BRILLOUIN|   135           0.00116       -0.45833        0.45833       -0.29167
 BRILLOUIN|   136           0.00116       -0.45833        0.45833       -0.20833
 BRILLOUIN|   137           0.00116       -0.45833        0.45833       -0.12500
 BRILLOUIN|   138           0.00116       -0.45833        0.45833       -0.04167
 BRILLOUIN|   139           0.00116       -0.45833        0.45833        0.04167
 BRILLOUIN|   140           0.00116       -0.45833        0.45833        0.12500
 BRILLOUIN|   141           0.00116       -0.45833        0.45833        0.20833
 BRILLOUIN|   142           0.00116       -0.45833        0.45833        0.29167
 BRILLOUIN|   143           0.00116       -0.45833        0.45833        0.37500
 BRILLOUIN|   144           0.00116       -0.45833        0.45833        0.45833
 BRILLOUIN|   145           0.00116       -0.37500       -0.45833       -0.45833
 BRILLOUIN|   146           0.00116       -0.37500       -0.45833       -0.37500
 BRILLOUIN|   147           0.00116       -0.37500       -0.45833       -0.29167
 BRILLOUIN|   148           0.00116       -0.37500       -0.45833       -0.20833
 BRILLOUIN|   149           0.00116       -0.37500       -0.45833       -0.12500
 BRILLOUIN|   150           0.00116       -0.37500       -0.45833       -0.04167
 BRILLOUIN|   151           0.00116       -0.37500       -0.45833        0.04167
 BRILLOUIN|   152           0.00116       -0.37500       -0.45833        0.12500
 BRILLOUIN|   153           0.00116       -0.37500       -0.45833        0.20833
 BRILLOUIN|   154           0.00116       -0.37500       -0.45833        0.29167
 BRILLOUIN|   155           0.00116       -0.37500       -0.45833        0.37500
 BRILLOUIN|   156           0.00116       -0.37500       -0.45833        0.45833
 BRILLOUIN|   157           0.00116       -0.37500       -0.37500       -0.45833
 BRILLOUIN|   158           0.00116       -0.37500       -0.37500       -0.37500
 BRILLOUIN|   159           0.00116       -0.37500       -0.37500       -0.29167
 BRILLOUIN|   160           0.00116       -0.37500       -0.37500       -0.20833
 BRILLOUIN|   161           0.00116       -0.37500       -0.37500       -0.12500
 BRILLOUIN|   162           0.00116       -0.37500       -0.37500       -0.04167
 BRILLOUIN|   163           0.00116       -0.37500       -0.37500        0.04167
 BRILLOUIN|   164           0.00116       -0.37500       -0.37500        0.12500
 BRILLOUIN|   165           0.00116       -0.37500       -0.37500        0.20833
 BRILLOUIN|   166           0.00116       -0.37500       -0.37500        0.29167
 BRILLOUIN|   167           0.00116       -0.37500       -0.37500        0.37500
 BRILLOUIN|   168           0.00116       -0.37500       -0.37500        0.45833
 BRILLOUIN|   169           0.00116       -0.37500       -0.29167       -0.45833
 BRILLOUIN|   170           0.00116       -0.37500       -0.29167       -0.37500
 BRILLOUIN|   171           0.00116       -0.37500       -0.29167       -0.29167
 BRILLOUIN|   172           0.00116       -0.37500       -0.29167       -0.20833
 BRILLOUIN|   173           0.00116       -0.37500       -0.29167       -0.12500
 BRILLOUIN|   174           0.00116       -0.37500       -0.29167       -0.04167
 BRILLOUIN|   175           0.00116       -0.37500       -0.29167        0.04167
 BRILLOUIN|   176           0.00116       -0.37500       -0.29167        0.12500
 BRILLOUIN|   177           0.00116       -0.37500       -0.29167        0.20833
 BRILLOUIN|   178           0.00116       -0.37500       -0.29167        0.29167
 BRILLOUIN|   179           0.00116       -0.37500       -0.29167        0.37500
 BRILLOUIN|   180           0.00116       -0.37500       -0.29167        0.45833
 BRILLOUIN|   181           0.00116       -0.37500       -0.20833       -0.45833
 BRILLOUIN|   182           0.00116       -0.37500       -0.20833       -0.37500
 BRILLOUIN|   183           0.00116       -0.37500       -0.20833       -0.29167
 BRILLOUIN|   184           0.00116       -0.37500       -0.20833       -0.20833
 BRILLOUIN|   185           0.00116       -0.37500       -0.20833       -0.12500
 BRILLOUIN|   186           0.00116       -0.37500       -0.20833       -0.04167
 BRILLOUIN|   187           0.00116       -0.37500       -0.20833        0.04167
 BRILLOUIN|   188           0.00116       -0.37500       -0.20833        0.12500
 BRILLOUIN|   189           0.00116       -0.37500       -0.20833        0.20833
 BRILLOUIN|   190           0.00116       -0.37500       -0.20833        0.29167
 BRILLOUIN|   191           0.00116       -0.37500       -0.20833        0.37500
 BRILLOUIN|   192           0.00116       -0.37500       -0.20833        0.45833
 BRILLOUIN|   193           0.00116       -0.37500       -0.12500       -0.45833
 BRILLOUIN|   194           0.00116       -0.37500       -0.12500       -0.37500
 BRILLOUIN|   195           0.00116       -0.37500       -0.12500       -0.29167
 BRILLOUIN|   196           0.00116       -0.37500       -0.12500       -0.20833
 BRILLOUIN|   197           0.00116       -0.37500       -0.12500       -0.12500
 BRILLOUIN|   198           0.00116       -0.37500       -0.12500       -0.04167
 BRILLOUIN|   199           0.00116       -0.37500       -0.12500        0.04167
 BRILLOUIN|   200           0.00116       -0.37500       -0.12500        0.12500
 BRILLOUIN|   201           0.00116       -0.37500       -0.12500        0.20833
 BRILLOUIN|   202           0.00116       -0.37500       -0.12500        0.29167
 BRILLOUIN|   203           0.00116       -0.37500       -0.12500        0.37500
 BRILLOUIN|   204           0.00116       -0.37500       -0.12500        0.45833
 BRILLOUIN|   205           0.00116       -0.37500       -0.04167       -0.45833
 BRILLOUIN|   206           0.00116       -0.37500       -0.04167       -0.37500
 BRILLOUIN|   207           0.00116       -0.37500       -0.04167       -0.29167
 BRILLOUIN|   208           0.00116       -0.37500       -0.04167       -0.20833
 BRILLOUIN|   209           0.00116       -0.37500       -0.04167       -0.12500
 BRILLOUIN|   210           0.00116       -0.37500       -0.04167       -0.04167
 BRILLOUIN|   211           0.00116       -0.37500       -0.04167        0.04167
 BRILLOUIN|   212           0.00116       -0.37500       -0.04167        0.12500
 BRILLOUIN|   213           0.00116       -0.37500       -0.04167        0.20833
 BRILLOUIN|   214           0.00116       -0.37500       -0.04167        0.29167
 BRILLOUIN|   215           0.00116       -0.37500       -0.04167        0.37500
 BRILLOUIN|   216           0.00116       -0.37500       -0.04167        0.45833
 BRILLOUIN|   217           0.00116       -0.37500        0.04167       -0.45833
 BRILLOUIN|   218           0.00116       -0.37500        0.04167       -0.37500
 BRILLOUIN|   219           0.00116       -0.37500        0.04167       -0.29167
 BRILLOUIN|   220           0.00116       -0.37500        0.04167       -0.20833
 BRILLOUIN|   221           0.00116       -0.37500        0.04167       -0.12500
 BRILLOUIN|   222           0.00116       -0.37500        0.04167       -0.04167
 BRILLOUIN|   223           0.00116       -0.37500        0.04167        0.04167
 BRILLOUIN|   224           0.00116       -0.37500        0.04167        0.12500
 BRILLOUIN|   225           0.00116       -0.37500        0.04167        0.20833
 BRILLOUIN|   226           0.00116       -0.37500        0.04167        0.29167
 BRILLOUIN|   227           0.00116       -0.37500        0.04167        0.37500
 BRILLOUIN|   228           0.00116       -0.37500        0.04167        0.45833
 BRILLOUIN|   229           0.00116       -0.37500        0.12500       -0.45833
 BRILLOUIN|   230           0.00116       -0.37500        0.12500       -0.37500
 BRILLOUIN|   231           0.00116       -0.37500        0.12500       -0.29167
 BRILLOUIN|   232           0.00116       -0.37500        0.12500       -0.20833
 BRILLOUIN|   233           0.00116       -0.37500        0.12500       -0.12500
 BRILLOUIN|   234           0.00116       -0.37500        0.12500       -0.04167
 BRILLOUIN|   235           0.00116       -0.37500        0.12500        0.04167
 BRILLOUIN|   236           0.00116       -0.37500        0.12500        0.12500
 BRILLOUIN|   237           0.00116       -0.37500        0.12500        0.20833
 BRILLOUIN|   238           0.00116       -0.37500        0.12500        0.29167
 BRILLOUIN|   239           0.00116       -0.37500        0.12500        0.37500
 BRILLOUIN|   240           0.00116       -0.37500        0.12500        0.45833
 BRILLOUIN|   241           0.00116       -0.37500        0.20833       -0.45833
 BRILLOUIN|   242           0.00116       -0.37500        0.20833       -0.37500
 BRILLOUIN|   243           0.00116       -0.37500        0.20833       -0.29167
 BRILLOUIN|   244           0.00116       -0.37500        0.20833       -0.20833
 BRILLOUIN|   245           0.00116       -0.37500        0.20833       -0.12500
 BRILLOUIN|   246           0.00116       -0.37500        0.20833       -0.04167
 BRILLOUIN|   247           0.00116       -0.37500        0.20833        0.04167
 BRILLOUIN|   248           0.00116       -0.37500        0.20833        0.12500
 BRILLOUIN|   249           0.00116       -0.37500        0.20833        0.20833
 BRILLOUIN|   250           0.00116       -0.37500        0.20833        0.29167
 BRILLOUIN|   251           0.00116       -0.37500        0.20833        0.37500
 BRILLOUIN|   252           0.00116       -0.37500        0.20833        0.45833
 BRILLOUIN|   253           0.00116       -0.37500        0.29167       -0.45833
 BRILLOUIN|   254           0.00116       -0.37500        0.29167       -0.37500
 BRILLOUIN|   255           0.00116       -0.37500        0.29167       -0.29167
 BRILLOUIN|   256           0.00116       -0.37500        0.29167       -0.20833
 BRILLOUIN|   257           0.00116       -0.37500        0.29167       -0.12500
 BRILLOUIN|   258           0.00116       -0.37500        0.29167       -0.04167
 BRILLOUIN|   259           0.00116       -0.37500        0.29167        0.04167
 BRILLOUIN|   260           0.00116       -0.37500        0.29167        0.12500
 BRILLOUIN|   261           0.00116       -0.37500        0.29167        0.20833
 BRILLOUIN|   262           0.00116       -0.37500        0.29167        0.29167
 BRILLOUIN|   263           0.00116       -0.37500        0.29167        0.37500
 BRILLOUIN|   264           0.00116       -0.37500        0.29167        0.45833
 BRILLOUIN|   265           0.00116       -0.37500        0.37500       -0.45833
 BRILLOUIN|   266           0.00116       -0.37500        0.37500       -0.37500
 BRILLOUIN|   267           0.00116       -0.37500        0.37500       -0.29167
 BRILLOUIN|   268           0.00116       -0.37500        0.37500       -0.20833
 BRILLOUIN|   269           0.00116       -0.37500        0.37500       -0.12500
 BRILLOUIN|   270           0.00116       -0.37500        0.37500       -0.04167
 BRILLOUIN|   271           0.00116       -0.37500        0.37500        0.04167
 BRILLOUIN|   272           0.00116       -0.37500        0.37500        0.12500
 BRILLOUIN|   273           0.00116       -0.37500        0.37500        0.20833
 BRILLOUIN|   274           0.00116       -0.37500        0.37500        0.29167
 BRILLOUIN|   275           0.00116       -0.37500        0.37500        0.37500
 BRILLOUIN|   276           0.00116       -0.37500        0.37500        0.45833
 BRILLOUIN|   277           0.00116       -0.37500        0.45833       -0.45833
 BRILLOUIN|   278           0.00116       -0.37500        0.45833       -0.37500
 BRILLOUIN|   279           0.00116       -0.37500        0.45833       -0.29167
 BRILLOUIN|   280           0.00116       -0.37500        0.45833       -0.20833
 BRILLOUIN|   281           0.00116       -0.37500        0.45833       -0.12500
 BRILLOUIN|   282           0.00116       -0.37500        0.45833       -0.04167
 BRILLOUIN|   283           0.00116       -0.37500        0.45833        0.04167
 BRILLOUIN|   284           0.00116       -0.37500        0.45833        0.12500
 BRILLOUIN|   285           0.00116       -0.37500        0.45833        0.20833
 BRILLOUIN|   286           0.00116       -0.37500        0.45833        0.29167
 BRILLOUIN|   287           0.00116       -0.37500        0.45833        0.37500
 BRILLOUIN|   288           0.00116       -0.37500        0.45833        0.45833
 BRILLOUIN|   289           0.00116       -0.29167       -0.45833       -0.45833
 BRILLOUIN|   290           0.00116       -0.29167       -0.45833       -0.37500
 BRILLOUIN|   291           0.00116       -0.29167       -0.45833       -0.29167
 BRILLOUIN|   292           0.00116       -0.29167       -0.45833       -0.20833
 BRILLOUIN|   293           0.00116       -0.29167       -0.45833       -0.12500
 BRILLOUIN|   294           0.00116       -0.29167       -0.45833       -0.04167
 BRILLOUIN|   295           0.00116       -0.29167       -0.45833        0.04167
 BRILLOUIN|   296           0.00116       -0.29167       -0.45833        0.12500
 BRILLOUIN|   297           0.00116       -0.29167       -0.45833        0.20833
 BRILLOUIN|   298           0.00116       -0.29167       -0.45833        0.29167
 BRILLOUIN|   299           0.00116       -0.29167       -0.45833        0.37500
 BRILLOUIN|   300           0.00116       -0.29167       -0.45833        0.45833
 BRILLOUIN|   301           0.00116       -0.29167       -0.37500       -0.45833
 BRILLOUIN|   302           0.00116       -0.29167       -0.37500       -0.37500
 BRILLOUIN|   303           0.00116       -0.29167       -0.37500       -0.29167
 BRILLOUIN|   304           0.00116       -0.29167       -0.37500       -0.20833
 BRILLOUIN|   305           0.00116       -0.29167       -0.37500       -0.12500
 BRILLOUIN|   306           0.00116       -0.29167       -0.37500       -0.04167
 BRILLOUIN|   307           0.00116       -0.29167       -0.37500        0.04167
 BRILLOUIN|   308           0.00116       -0.29167       -0.37500        0.12500
 BRILLOUIN|   309           0.00116       -0.29167       -0.37500        0.20833
 BRILLOUIN|   310           0.00116       -0.29167       -0.37500        0.29167
 BRILLOUIN|   311           0.00116       -0.29167       -0.37500        0.37500
 BRILLOUIN|   312           0.00116       -0.29167       -0.37500        0.45833
 BRILLOUIN|   313           0.00116       -0.29167       -0.29167       -0.45833
 BRILLOUIN|   314           0.00116       -0.29167       -0.29167       -0.37500
 BRILLOUIN|   315           0.00116       -0.29167       -0.29167       -0.29167
 BRILLOUIN|   316           0.00116       -0.29167       -0.29167       -0.20833
 BRILLOUIN|   317           0.00116       -0.29167       -0.29167       -0.12500
 BRILLOUIN|   318           0.00116       -0.29167       -0.29167       -0.04167
 BRILLOUIN|   319           0.00116       -0.29167       -0.29167        0.04167
 BRILLOUIN|   320           0.00116       -0.29167       -0.29167        0.12500
 BRILLOUIN|   321           0.00116       -0.29167       -0.29167        0.20833
 BRILLOUIN|   322           0.00116       -0.29167       -0.29167        0.29167
 BRILLOUIN|   323           0.00116       -0.29167       -0.29167        0.37500
 BRILLOUIN|   324           0.00116       -0.29167       -0.29167        0.45833
 BRILLOUIN|   325           0.00116       -0.29167       -0.20833       -0.45833
 BRILLOUIN|   326           0.00116       -0.29167       -0.20833       -0.37500
 BRILLOUIN|   327           0.00116       -0.29167       -0.20833       -0.29167
 BRILLOUIN|   328           0.00116       -0.29167       -0.20833       -0.20833
 BRILLOUIN|   329           0.00116       -0.29167       -0.20833       -0.12500
 BRILLOUIN|   330           0.00116       -0.29167       -0.20833       -0.04167
 BRILLOUIN|   331           0.00116       -0.29167       -0.20833        0.04167
 BRILLOUIN|   332           0.00116       -0.29167       -0.20833        0.12500
 BRILLOUIN|   333           0.00116       -0.29167       -0.20833        0.20833
 BRILLOUIN|   334           0.00116       -0.29167       -0.20833        0.29167
 BRILLOUIN|   335           0.00116       -0.29167       -0.20833        0.37500
 BRILLOUIN|   336           0.00116       -0.29167       -0.20833        0.45833
 BRILLOUIN|   337           0.00116       -0.29167       -0.12500       -0.45833
 BRILLOUIN|   338           0.00116       -0.29167       -0.12500       -0.37500
 BRILLOUIN|   339           0.00116       -0.29167       -0.12500       -0.29167
 BRILLOUIN|   340           0.00116       -0.29167       -0.12500       -0.20833
 BRILLOUIN|   341           0.00116       -0.29167       -0.12500       -0.12500
 BRILLOUIN|   342           0.00116       -0.29167       -0.12500       -0.04167
 BRILLOUIN|   343           0.00116       -0.29167       -0.12500        0.04167
 BRILLOUIN|   344           0.00116       -0.29167       -0.12500        0.12500
 BRILLOUIN|   345           0.00116       -0.29167       -0.12500        0.20833
 BRILLOUIN|   346           0.00116       -0.29167       -0.12500        0.29167
 BRILLOUIN|   347           0.00116       -0.29167       -0.12500        0.37500
 BRILLOUIN|   348           0.00116       -0.29167       -0.12500        0.45833
 BRILLOUIN|   349           0.00116       -0.29167       -0.04167       -0.45833
 BRILLOUIN|   350           0.00116       -0.29167       -0.04167       -0.37500
 BRILLOUIN|   351           0.00116       -0.29167       -0.04167       -0.29167
 BRILLOUIN|   352           0.00116       -0.29167       -0.04167       -0.20833
 BRILLOUIN|   353           0.00116       -0.29167       -0.04167       -0.12500
 BRILLOUIN|   354           0.00116       -0.29167       -0.04167       -0.04167
 BRILLOUIN|   355           0.00116       -0.29167       -0.04167        0.04167
 BRILLOUIN|   356           0.00116       -0.29167       -0.04167        0.12500
 BRILLOUIN|   357           0.00116       -0.29167       -0.04167        0.20833
 BRILLOUIN|   358           0.00116       -0.29167       -0.04167        0.29167
 BRILLOUIN|   359           0.00116       -0.29167       -0.04167        0.37500
 BRILLOUIN|   360           0.00116       -0.29167       -0.04167        0.45833
 BRILLOUIN|   361           0.00116       -0.29167        0.04167       -0.45833
 BRILLOUIN|   362           0.00116       -0.29167        0.04167       -0.37500
 BRILLOUIN|   363           0.00116       -0.29167        0.04167       -0.29167
 BRILLOUIN|   364           0.00116       -0.29167        0.04167       -0.20833
 BRILLOUIN|   365           0.00116       -0.29167        0.04167       -0.12500
 BRILLOUIN|   366           0.00116       -0.29167        0.04167       -0.04167
 BRILLOUIN|   367           0.00116       -0.29167        0.04167        0.04167
 BRILLOUIN|   368           0.00116       -0.29167        0.04167        0.12500
 BRILLOUIN|   369           0.00116       -0.29167        0.04167        0.20833
 BRILLOUIN|   370           0.00116       -0.29167        0.04167        0.29167
 BRILLOUIN|   371           0.00116       -0.29167        0.04167        0.37500
 BRILLOUIN|   372           0.00116       -0.29167        0.04167        0.45833
 BRILLOUIN|   373           0.00116       -0.29167        0.12500       -0.45833
 BRILLOUIN|   374           0.00116       -0.29167        0.12500       -0.37500
 BRILLOUIN|   375           0.00116       -0.29167        0.12500       -0.29167
 BRILLOUIN|   376           0.00116       -0.29167        0.12500       -0.20833
 BRILLOUIN|   377           0.00116       -0.29167        0.12500       -0.12500
 BRILLOUIN|   378           0.00116       -0.29167        0.12500       -0.04167
 BRILLOUIN|   379           0.00116       -0.29167        0.12500        0.04167
 BRILLOUIN|   380           0.00116       -0.29167        0.12500        0.12500
 BRILLOUIN|   381           0.00116       -0.29167        0.12500        0.20833
 BRILLOUIN|   382           0.00116       -0.29167        0.12500        0.29167
 BRILLOUIN|   383           0.00116       -0.29167        0.12500        0.37500
 BRILLOUIN|   384           0.00116       -0.29167        0.12500        0.45833
 BRILLOUIN|   385           0.00116       -0.29167        0.20833       -0.45833
 BRILLOUIN|   386           0.00116       -0.29167        0.20833       -0.37500
 BRILLOUIN|   387           0.00116       -0.29167        0.20833       -0.29167
 BRILLOUIN|   388           0.00116       -0.29167        0.20833       -0.20833
 BRILLOUIN|   389           0.00116       -0.29167        0.20833       -0.12500
 BRILLOUIN|   390           0.00116       -0.29167        0.20833       -0.04167
 BRILLOUIN|   391           0.00116       -0.29167        0.20833        0.04167
 BRILLOUIN|   392           0.00116       -0.29167        0.20833        0.12500
 BRILLOUIN|   393           0.00116       -0.29167        0.20833        0.20833
 BRILLOUIN|   394           0.00116       -0.29167        0.20833        0.29167
 BRILLOUIN|   395           0.00116       -0.29167        0.20833        0.37500
 BRILLOUIN|   396           0.00116       -0.29167        0.20833        0.45833
 BRILLOUIN|   397           0.00116       -0.29167        0.29167       -0.45833
 BRILLOUIN|   398           0.00116       -0.29167        0.29167       -0.37500
 BRILLOUIN|   399           0.00116       -0.29167        0.29167       -0.29167
 BRILLOUIN|   400           0.00116       -0.29167        0.29167       -0.20833
 BRILLOUIN|   401           0.00116       -0.29167        0.29167       -0.12500
 BRILLOUIN|   402           0.00116       -0.29167        0.29167       -0.04167
 BRILLOUIN|   403           0.00116       -0.29167        0.29167        0.04167
 BRILLOUIN|   404           0.00116       -0.29167        0.29167        0.12500
 BRILLOUIN|   405           0.00116       -0.29167        0.29167        0.20833
 BRILLOUIN|   406           0.00116       -0.29167        0.29167        0.29167
 BRILLOUIN|   407           0.00116       -0.29167        0.29167        0.37500
 BRILLOUIN|   408           0.00116       -0.29167        0.29167        0.45833
 BRILLOUIN|   409           0.00116       -0.29167        0.37500       -0.45833
 BRILLOUIN|   410           0.00116       -0.29167        0.37500       -0.37500
 BRILLOUIN|   411           0.00116       -0.29167        0.37500       -0.29167
 BRILLOUIN|   412           0.00116       -0.29167        0.37500       -0.20833
 BRILLOUIN|   413           0.00116       -0.29167        0.37500       -0.12500
 BRILLOUIN|   414           0.00116       -0.29167        0.37500       -0.04167
 BRILLOUIN|   415           0.00116       -0.29167        0.37500        0.04167
 BRILLOUIN|   416           0.00116       -0.29167        0.37500        0.12500
 BRILLOUIN|   417           0.00116       -0.29167        0.37500        0.20833
 BRILLOUIN|   418           0.00116       -0.29167        0.37500        0.29167
 BRILLOUIN|   419           0.00116       -0.29167        0.37500        0.37500
 BRILLOUIN|   420           0.00116       -0.29167        0.37500        0.45833
 BRILLOUIN|   421           0.00116       -0.29167        0.45833       -0.45833
 BRILLOUIN|   422           0.00116       -0.29167        0.45833       -0.37500
 BRILLOUIN|   423           0.00116       -0.29167        0.45833       -0.29167
 BRILLOUIN|   424           0.00116       -0.29167        0.45833       -0.20833
 BRILLOUIN|   425           0.00116       -0.29167        0.45833       -0.12500
 BRILLOUIN|   426           0.00116       -0.29167        0.45833       -0.04167
 BRILLOUIN|   427           0.00116       -0.29167        0.45833        0.04167
 BRILLOUIN|   428           0.00116       -0.29167        0.45833        0.12500
 BRILLOUIN|   429           0.00116       -0.29167        0.45833        0.20833
 BRILLOUIN|   430           0.00116       -0.29167        0.45833        0.29167
 BRILLOUIN|   431           0.00116       -0.29167        0.45833        0.37500
 BRILLOUIN|   432           0.00116       -0.29167        0.45833        0.45833
 BRILLOUIN|   433           0.00116       -0.20833       -0.45833       -0.45833
 BRILLOUIN|   434           0.00116       -0.20833       -0.45833       -0.37500
 BRILLOUIN|   435           0.00116       -0.20833       -0.45833       -0.29167
 BRILLOUIN|   436           0.00116       -0.20833       -0.45833       -0.20833
 BRILLOUIN|   437           0.00116       -0.20833       -0.45833       -0.12500
 BRILLOUIN|   438           0.00116       -0.20833       -0.45833       -0.04167
 BRILLOUIN|   439           0.00116       -0.20833       -0.45833        0.04167
 BRILLOUIN|   440           0.00116       -0.20833       -0.45833        0.12500
 BRILLOUIN|   441           0.00116       -0.20833       -0.45833        0.20833
 BRILLOUIN|   442           0.00116       -0.20833       -0.45833        0.29167
 BRILLOUIN|   443           0.00116       -0.20833       -0.45833        0.37500
 BRILLOUIN|   444           0.00116       -0.20833       -0.45833        0.45833
 BRILLOUIN|   445           0.00116       -0.20833       -0.37500       -0.45833
 BRILLOUIN|   446           0.00116       -0.20833       -0.37500       -0.37500
 BRILLOUIN|   447           0.00116       -0.20833       -0.37500       -0.29167
 BRILLOUIN|   448           0.00116       -0.20833       -0.37500       -0.20833
 BRILLOUIN|   449           0.00116       -0.20833       -0.37500       -0.12500
 BRILLOUIN|   450           0.00116       -0.20833       -0.37500       -0.04167
 BRILLOUIN|   451           0.00116       -0.20833       -0.37500        0.04167
 BRILLOUIN|   452           0.00116       -0.20833       -0.37500        0.12500
 BRILLOUIN|   453           0.00116       -0.20833       -0.37500        0.20833
 BRILLOUIN|   454           0.00116       -0.20833       -0.37500        0.29167
 BRILLOUIN|   455           0.00116       -0.20833       -0.37500        0.37500
 BRILLOUIN|   456           0.00116       -0.20833       -0.37500        0.45833
 BRILLOUIN|   457           0.00116       -0.20833       -0.29167       -0.45833
 BRILLOUIN|   458           0.00116       -0.20833       -0.29167       -0.37500
 BRILLOUIN|   459           0.00116       -0.20833       -0.29167       -0.29167
 BRILLOUIN|   460           0.00116       -0.20833       -0.29167       -0.20833
 BRILLOUIN|   461           0.00116       -0.20833       -0.29167       -0.12500
 BRILLOUIN|   462           0.00116       -0.20833       -0.29167       -0.04167
 BRILLOUIN|   463           0.00116       -0.20833       -0.29167        0.04167
 BRILLOUIN|   464           0.00116       -0.20833       -0.29167        0.12500
 BRILLOUIN|   465           0.00116       -0.20833       -0.29167        0.20833
 BRILLOUIN|   466           0.00116       -0.20833       -0.29167        0.29167
 BRILLOUIN|   467           0.00116       -0.20833       -0.29167        0.37500
 BRILLOUIN|   468           0.00116       -0.20833       -0.29167        0.45833
 BRILLOUIN|   469           0.00116       -0.20833       -0.20833       -0.45833
 BRILLOUIN|   470           0.00116       -0.20833       -0.20833       -0.37500
 BRILLOUIN|   471           0.00116       -0.20833       -0.20833       -0.29167
 BRILLOUIN|   472           0.00116       -0.20833       -0.20833       -0.20833
 BRILLOUIN|   473           0.00116       -0.20833       -0.20833       -0.12500
 BRILLOUIN|   474           0.00116       -0.20833       -0.20833       -0.04167
 BRILLOUIN|   475           0.00116       -0.20833       -0.20833        0.04167
 BRILLOUIN|   476           0.00116       -0.20833       -0.20833        0.12500
 BRILLOUIN|   477           0.00116       -0.20833       -0.20833        0.20833
 BRILLOUIN|   478           0.00116       -0.20833       -0.20833        0.29167
 BRILLOUIN|   479           0.00116       -0.20833       -0.20833        0.37500
 BRILLOUIN|   480           0.00116       -0.20833       -0.20833        0.45833
 BRILLOUIN|   481           0.00116       -0.20833       -0.12500       -0.45833
 BRILLOUIN|   482           0.00116       -0.20833       -0.12500       -0.37500
 BRILLOUIN|   483           0.00116       -0.20833       -0.12500       -0.29167
 BRILLOUIN|   484           0.00116       -0.20833       -0.12500       -0.20833
 BRILLOUIN|   485           0.00116       -0.20833       -0.12500       -0.12500
 BRILLOUIN|   486           0.00116       -0.20833       -0.12500       -0.04167
 BRILLOUIN|   487           0.00116       -0.20833       -0.12500        0.04167
 BRILLOUIN|   488           0.00116       -0.20833       -0.12500        0.12500
 BRILLOUIN|   489           0.00116       -0.20833       -0.12500        0.20833
 BRILLOUIN|   490           0.00116       -0.20833       -0.12500        0.29167
 BRILLOUIN|   491           0.00116       -0.20833       -0.12500        0.37500
 BRILLOUIN|   492           0.00116       -0.20833       -0.12500        0.45833
 BRILLOUIN|   493           0.00116       -0.20833       -0.04167       -0.45833
 BRILLOUIN|   494           0.00116       -0.20833       -0.04167       -0.37500
 BRILLOUIN|   495           0.00116       -0.20833       -0.04167       -0.29167
 BRILLOUIN|   496           0.00116       -0.20833       -0.04167       -0.20833
 BRILLOUIN|   497           0.00116       -0.20833       -0.04167       -0.12500
 BRILLOUIN|   498           0.00116       -0.20833       -0.04167       -0.04167
 BRILLOUIN|   499           0.00116       -0.20833       -0.04167        0.04167
 BRILLOUIN|   500           0.00116       -0.20833       -0.04167        0.12500
 BRILLOUIN|   501           0.00116       -0.20833       -0.04167        0.20833
 BRILLOUIN|   502           0.00116       -0.20833       -0.04167        0.29167
 BRILLOUIN|   503           0.00116       -0.20833       -0.04167        0.37500
 BRILLOUIN|   504           0.00116       -0.20833       -0.04167        0.45833
 BRILLOUIN|   505           0.00116       -0.20833        0.04167       -0.45833
 BRILLOUIN|   506           0.00116       -0.20833        0.04167       -0.37500
 BRILLOUIN|   507           0.00116       -0.20833        0.04167       -0.29167
 BRILLOUIN|   508           0.00116       -0.20833        0.04167       -0.20833
 BRILLOUIN|   509           0.00116       -0.20833        0.04167       -0.12500
 BRILLOUIN|   510           0.00116       -0.20833        0.04167       -0.04167
 BRILLOUIN|   511           0.00116       -0.20833        0.04167        0.04167
 BRILLOUIN|   512           0.00116       -0.20833        0.04167        0.12500
 BRILLOUIN|   513           0.00116       -0.20833        0.04167        0.20833
 BRILLOUIN|   514           0.00116       -0.20833        0.04167        0.29167
 BRILLOUIN|   515           0.00116       -0.20833        0.04167        0.37500
 BRILLOUIN|   516           0.00116       -0.20833        0.04167        0.45833
 BRILLOUIN|   517           0.00116       -0.20833        0.12500       -0.45833
 BRILLOUIN|   518           0.00116       -0.20833        0.12500       -0.37500
 BRILLOUIN|   519           0.00116       -0.20833        0.12500       -0.29167
 BRILLOUIN|   520           0.00116       -0.20833        0.12500       -0.20833
 BRILLOUIN|   521           0.00116       -0.20833        0.12500       -0.12500
 BRILLOUIN|   522           0.00116       -0.20833        0.12500       -0.04167
 BRILLOUIN|   523           0.00116       -0.20833        0.12500        0.04167
 BRILLOUIN|   524           0.00116       -0.20833        0.12500        0.12500
 BRILLOUIN|   525           0.00116       -0.20833        0.12500        0.20833
 BRILLOUIN|   526           0.00116       -0.20833        0.12500        0.29167
 BRILLOUIN|   527           0.00116       -0.20833        0.12500        0.37500
 BRILLOUIN|   528           0.00116       -0.20833        0.12500        0.45833
 BRILLOUIN|   529           0.00116       -0.20833        0.20833       -0.45833
 BRILLOUIN|   530           0.00116       -0.20833        0.20833       -0.37500
 BRILLOUIN|   531           0.00116       -0.20833        0.20833       -0.29167
 BRILLOUIN|   532           0.00116       -0.20833        0.20833       -0.20833
 BRILLOUIN|   533           0.00116       -0.20833        0.20833       -0.12500
 BRILLOUIN|   534           0.00116       -0.20833        0.20833       -0.04167
 BRILLOUIN|   535           0.00116       -0.20833        0.20833        0.04167
 BRILLOUIN|   536           0.00116       -0.20833        0.20833        0.12500
 BRILLOUIN|   537           0.00116       -0.20833        0.20833        0.20833
 BRILLOUIN|   538           0.00116       -0.20833        0.20833        0.29167
 BRILLOUIN|   539           0.00116       -0.20833        0.20833        0.37500
 BRILLOUIN|   540           0.00116       -0.20833        0.20833        0.45833
 BRILLOUIN|   541           0.00116       -0.20833        0.29167       -0.45833
 BRILLOUIN|   542           0.00116       -0.20833        0.29167       -0.37500
 BRILLOUIN|   543           0.00116       -0.20833        0.29167       -0.29167
 BRILLOUIN|   544           0.00116       -0.20833        0.29167       -0.20833
 BRILLOUIN|   545           0.00116       -0.20833        0.29167       -0.12500
 BRILLOUIN|   546           0.00116       -0.20833        0.29167       -0.04167
 BRILLOUIN|   547           0.00116       -0.20833        0.29167        0.04167
 BRILLOUIN|   548           0.00116       -0.20833        0.29167        0.12500
 BRILLOUIN|   549           0.00116       -0.20833        0.29167        0.20833
 BRILLOUIN|   550           0.00116       -0.20833        0.29167        0.29167
 BRILLOUIN|   551           0.00116       -0.20833        0.29167        0.37500
 BRILLOUIN|   552           0.00116       -0.20833        0.29167        0.45833
 BRILLOUIN|   553           0.00116       -0.20833        0.37500       -0.45833
 BRILLOUIN|   554           0.00116       -0.20833        0.37500       -0.37500
 BRILLOUIN|   555           0.00116       -0.20833        0.37500       -0.29167
 BRILLOUIN|   556           0.00116       -0.20833        0.37500       -0.20833
 BRILLOUIN|   557           0.00116       -0.20833        0.37500       -0.12500
 BRILLOUIN|   558           0.00116       -0.20833        0.37500       -0.04167
 BRILLOUIN|   559           0.00116       -0.20833        0.37500        0.04167
 BRILLOUIN|   560           0.00116       -0.20833        0.37500        0.12500
 BRILLOUIN|   561           0.00116       -0.20833        0.37500        0.20833
 BRILLOUIN|   562           0.00116       -0.20833        0.37500        0.29167
 BRILLOUIN|   563           0.00116       -0.20833        0.37500        0.37500
 BRILLOUIN|   564           0.00116       -0.20833        0.37500        0.45833
 BRILLOUIN|   565           0.00116       -0.20833        0.45833       -0.45833
 BRILLOUIN|   566           0.00116       -0.20833        0.45833       -0.37500
 BRILLOUIN|   567           0.00116       -0.20833        0.45833       -0.29167
 BRILLOUIN|   568           0.00116       -0.20833        0.45833       -0.20833
 BRILLOUIN|   569           0.00116       -0.20833        0.45833       -0.12500
 BRILLOUIN|   570           0.00116       -0.20833        0.45833       -0.04167
 BRILLOUIN|   571           0.00116       -0.20833        0.45833        0.04167
 BRILLOUIN|   572           0.00116       -0.20833        0.45833        0.12500
 BRILLOUIN|   573           0.00116       -0.20833        0.45833        0.20833
 BRILLOUIN|   574           0.00116       -0.20833        0.45833        0.29167
 BRILLOUIN|   575           0.00116       -0.20833        0.45833        0.37500
 BRILLOUIN|   576           0.00116       -0.20833        0.45833        0.45833
 BRILLOUIN|   577           0.00116       -0.12500       -0.45833       -0.45833
 BRILLOUIN|   578           0.00116       -0.12500       -0.45833       -0.37500
 BRILLOUIN|   579           0.00116       -0.12500       -0.45833       -0.29167
 BRILLOUIN|   580           0.00116       -0.12500       -0.45833       -0.20833
 BRILLOUIN|   581           0.00116       -0.12500       -0.45833       -0.12500
 BRILLOUIN|   582           0.00116       -0.12500       -0.45833       -0.04167
 BRILLOUIN|   583           0.00116       -0.12500       -0.45833        0.04167
 BRILLOUIN|   584           0.00116       -0.12500       -0.45833        0.12500
 BRILLOUIN|   585           0.00116       -0.12500       -0.45833        0.20833
 BRILLOUIN|   586           0.00116       -0.12500       -0.45833        0.29167
 BRILLOUIN|   587           0.00116       -0.12500       -0.45833        0.37500
 BRILLOUIN|   588           0.00116       -0.12500       -0.45833        0.45833
 BRILLOUIN|   589           0.00116       -0.12500       -0.37500       -0.45833
 BRILLOUIN|   590           0.00116       -0.12500       -0.37500       -0.37500
 BRILLOUIN|   591           0.00116       -0.12500       -0.37500       -0.29167
 BRILLOUIN|   592           0.00116       -0.12500       -0.37500       -0.20833
 BRILLOUIN|   593           0.00116       -0.12500       -0.37500       -0.12500
 BRILLOUIN|   594           0.00116       -0.12500       -0.37500       -0.04167
 BRILLOUIN|   595           0.00116       -0.12500       -0.37500        0.04167
 BRILLOUIN|   596           0.00116       -0.12500       -0.37500        0.12500
 BRILLOUIN|   597           0.00116       -0.12500       -0.37500        0.20833
 BRILLOUIN|   598           0.00116       -0.12500       -0.37500        0.29167
 BRILLOUIN|   599           0.00116       -0.12500       -0.37500        0.37500
 BRILLOUIN|   600           0.00116       -0.12500       -0.37500        0.45833
 BRILLOUIN|   601           0.00116       -0.12500       -0.29167       -0.45833
 BRILLOUIN|   602           0.00116       -0.12500       -0.29167       -0.37500
 BRILLOUIN|   603           0.00116       -0.12500       -0.29167       -0.29167
 BRILLOUIN|   604           0.00116       -0.12500       -0.29167       -0.20833
 BRILLOUIN|   605           0.00116       -0.12500       -0.29167       -0.12500
 BRILLOUIN|   606           0.00116       -0.12500       -0.29167       -0.04167
 BRILLOUIN|   607           0.00116       -0.12500       -0.29167        0.04167
 BRILLOUIN|   608           0.00116       -0.12500       -0.29167        0.12500
 BRILLOUIN|   609           0.00116       -0.12500       -0.29167        0.20833
 BRILLOUIN|   610           0.00116       -0.12500       -0.29167        0.29167
 BRILLOUIN|   611           0.00116       -0.12500       -0.29167        0.37500
 BRILLOUIN|   612           0.00116       -0.12500       -0.29167        0.45833
 BRILLOUIN|   613           0.00116       -0.12500       -0.20833       -0.45833
 BRILLOUIN|   614           0.00116       -0.12500       -0.20833       -0.37500
 BRILLOUIN|   615           0.00116       -0.12500       -0.20833       -0.29167
 BRILLOUIN|   616           0.00116       -0.12500       -0.20833       -0.20833
 BRILLOUIN|   617           0.00116       -0.12500       -0.20833       -0.12500
 BRILLOUIN|   618           0.00116       -0.12500       -0.20833       -0.04167
 BRILLOUIN|   619           0.00116       -0.12500       -0.20833        0.04167
 BRILLOUIN|   620           0.00116       -0.12500       -0.20833        0.12500
 BRILLOUIN|   621           0.00116       -0.12500       -0.20833        0.20833
 BRILLOUIN|   622           0.00116       -0.12500       -0.20833        0.29167
 BRILLOUIN|   623           0.00116       -0.12500       -0.20833        0.37500
 BRILLOUIN|   624           0.00116       -0.12500       -0.20833        0.45833
 BRILLOUIN|   625           0.00116       -0.12500       -0.12500       -0.45833
 BRILLOUIN|   626           0.00116       -0.12500       -0.12500       -0.37500
 BRILLOUIN|   627           0.00116       -0.12500       -0.12500       -0.29167
 BRILLOUIN|   628           0.00116       -0.12500       -0.12500       -0.20833
 BRILLOUIN|   629           0.00116       -0.12500       -0.12500       -0.12500
 BRILLOUIN|   630           0.00116       -0.12500       -0.12500       -0.04167
 BRILLOUIN|   631           0.00116       -0.12500       -0.12500        0.04167
 BRILLOUIN|   632           0.00116       -0.12500       -0.12500        0.12500
 BRILLOUIN|   633           0.00116       -0.12500       -0.12500        0.20833
 BRILLOUIN|   634           0.00116       -0.12500       -0.12500        0.29167
 BRILLOUIN|   635           0.00116       -0.12500       -0.12500        0.37500
 BRILLOUIN|   636           0.00116       -0.12500       -0.12500        0.45833
 BRILLOUIN|   637           0.00116       -0.12500       -0.04167       -0.45833
 BRILLOUIN|   638           0.00116       -0.12500       -0.04167       -0.37500
 BRILLOUIN|   639           0.00116       -0.12500       -0.04167       -0.29167
 BRILLOUIN|   640           0.00116       -0.12500       -0.04167       -0.20833
 BRILLOUIN|   641           0.00116       -0.12500       -0.04167       -0.12500
 BRILLOUIN|   642           0.00116       -0.12500       -0.04167       -0.04167
 BRILLOUIN|   643           0.00116       -0.12500       -0.04167        0.04167
 BRILLOUIN|   644           0.00116       -0.12500       -0.04167        0.12500
 BRILLOUIN|   645           0.00116       -0.12500       -0.04167        0.20833
 BRILLOUIN|   646           0.00116       -0.12500       -0.04167        0.29167
 BRILLOUIN|   647           0.00116       -0.12500       -0.04167        0.37500
 BRILLOUIN|   648           0.00116       -0.12500       -0.04167        0.45833
 BRILLOUIN|   649           0.00116       -0.12500        0.04167       -0.45833
 BRILLOUIN|   650           0.00116       -0.12500        0.04167       -0.37500
 BRILLOUIN|   651           0.00116       -0.12500        0.04167       -0.29167
 BRILLOUIN|   652           0.00116       -0.12500        0.04167       -0.20833
 BRILLOUIN|   653           0.00116       -0.12500        0.04167       -0.12500
 BRILLOUIN|   654           0.00116       -0.12500        0.04167       -0.04167
 BRILLOUIN|   655           0.00116       -0.12500        0.04167        0.04167
 BRILLOUIN|   656           0.00116       -0.12500        0.04167        0.12500
 BRILLOUIN|   657           0.00116       -0.12500        0.04167        0.20833
 BRILLOUIN|   658           0.00116       -0.12500        0.04167        0.29167
 BRILLOUIN|   659           0.00116       -0.12500        0.04167        0.37500
 BRILLOUIN|   660           0.00116       -0.12500        0.04167        0.45833
 BRILLOUIN|   661           0.00116       -0.12500        0.12500       -0.45833
 BRILLOUIN|   662           0.00116       -0.12500        0.12500       -0.37500
 BRILLOUIN|   663           0.00116       -0.12500        0.12500       -0.29167
 BRILLOUIN|   664           0.00116       -0.12500        0.12500       -0.20833
 BRILLOUIN|   665           0.00116       -0.12500        0.12500       -0.12500
 BRILLOUIN|   666           0.00116       -0.12500        0.12500       -0.04167
 BRILLOUIN|   667           0.00116       -0.12500        0.12500        0.04167
 BRILLOUIN|   668           0.00116       -0.12500        0.12500        0.12500
 BRILLOUIN|   669           0.00116       -0.12500        0.12500        0.20833
 BRILLOUIN|   670           0.00116       -0.12500        0.12500        0.29167
 BRILLOUIN|   671           0.00116       -0.12500        0.12500        0.37500
 BRILLOUIN|   672           0.00116       -0.12500        0.12500        0.45833
 BRILLOUIN|   673           0.00116       -0.12500        0.20833       -0.45833
 BRILLOUIN|   674           0.00116       -0.12500        0.20833       -0.37500
 BRILLOUIN|   675           0.00116       -0.12500        0.20833       -0.29167
 BRILLOUIN|   676           0.00116       -0.12500        0.20833       -0.20833
 BRILLOUIN|   677           0.00116       -0.12500        0.20833       -0.12500
 BRILLOUIN|   678           0.00116       -0.12500        0.20833       -0.04167
 BRILLOUIN|   679           0.00116       -0.12500        0.20833        0.04167
 BRILLOUIN|   680           0.00116       -0.12500        0.20833        0.12500
 BRILLOUIN|   681           0.00116       -0.12500        0.20833        0.20833
 BRILLOUIN|   682           0.00116       -0.12500        0.20833        0.29167
 BRILLOUIN|   683           0.00116       -0.12500        0.20833        0.37500
 BRILLOUIN|   684           0.00116       -0.12500        0.20833        0.45833
 BRILLOUIN|   685           0.00116       -0.12500        0.29167       -0.45833
 BRILLOUIN|   686           0.00116       -0.12500        0.29167       -0.37500
 BRILLOUIN|   687           0.00116       -0.12500        0.29167       -0.29167
 BRILLOUIN|   688           0.00116       -0.12500        0.29167       -0.20833
 BRILLOUIN|   689           0.00116       -0.12500        0.29167       -0.12500
 BRILLOUIN|   690           0.00116       -0.12500        0.29167       -0.04167
 BRILLOUIN|   691           0.00116       -0.12500        0.29167        0.04167
 BRILLOUIN|   692           0.00116       -0.12500        0.29167        0.12500
 BRILLOUIN|   693           0.00116       -0.12500        0.29167        0.20833
 BRILLOUIN|   694           0.00116       -0.12500        0.29167        0.29167
 BRILLOUIN|   695           0.00116       -0.12500        0.29167        0.37500
 BRILLOUIN|   696           0.00116       -0.12500        0.29167        0.45833
 BRILLOUIN|   697           0.00116       -0.12500        0.37500       -0.45833
 BRILLOUIN|   698           0.00116       -0.12500        0.37500       -0.37500
 BRILLOUIN|   699           0.00116       -0.12500        0.37500       -0.29167
 BRILLOUIN|   700           0.00116       -0.12500        0.37500       -0.20833
 BRILLOUIN|   701           0.00116       -0.12500        0.37500       -0.12500
 BRILLOUIN|   702           0.00116       -0.12500        0.37500       -0.04167
 BRILLOUIN|   703           0.00116       -0.12500        0.37500        0.04167
 BRILLOUIN|   704           0.00116       -0.12500        0.37500        0.12500
 BRILLOUIN|   705           0.00116       -0.12500        0.37500        0.20833
 BRILLOUIN|   706           0.00116       -0.12500        0.37500        0.29167
 BRILLOUIN|   707           0.00116       -0.12500        0.37500        0.37500
 BRILLOUIN|   708           0.00116       -0.12500        0.37500        0.45833
 BRILLOUIN|   709           0.00116       -0.12500        0.45833       -0.45833
 BRILLOUIN|   710           0.00116       -0.12500        0.45833       -0.37500
 BRILLOUIN|   711           0.00116       -0.12500        0.45833       -0.29167
 BRILLOUIN|   712           0.00116       -0.12500        0.45833       -0.20833
 BRILLOUIN|   713           0.00116       -0.12500        0.45833       -0.12500
 BRILLOUIN|   714           0.00116       -0.12500        0.45833       -0.04167
 BRILLOUIN|   715           0.00116       -0.12500        0.45833        0.04167
 BRILLOUIN|   716           0.00116       -0.12500        0.45833        0.12500
 BRILLOUIN|   717           0.00116       -0.12500        0.45833        0.20833
 BRILLOUIN|   718           0.00116       -0.12500        0.45833        0.29167
 BRILLOUIN|   719           0.00116       -0.12500        0.45833        0.37500
 BRILLOUIN|   720           0.00116       -0.12500        0.45833        0.45833
 BRILLOUIN|   721           0.00116       -0.04167       -0.45833       -0.45833
 BRILLOUIN|   722           0.00116       -0.04167       -0.45833       -0.37500
 BRILLOUIN|   723           0.00116       -0.04167       -0.45833       -0.29167
 BRILLOUIN|   724           0.00116       -0.04167       -0.45833       -0.20833
 BRILLOUIN|   725           0.00116       -0.04167       -0.45833       -0.12500
 BRILLOUIN|   726           0.00116       -0.04167       -0.45833       -0.04167
 BRILLOUIN|   727           0.00116       -0.04167       -0.45833        0.04167
 BRILLOUIN|   728           0.00116       -0.04167       -0.45833        0.12500
 BRILLOUIN|   729           0.00116       -0.04167       -0.45833        0.20833
 BRILLOUIN|   730           0.00116       -0.04167       -0.45833        0.29167
 BRILLOUIN|   731           0.00116       -0.04167       -0.45833        0.37500
 BRILLOUIN|   732           0.00116       -0.04167       -0.45833        0.45833
 BRILLOUIN|   733           0.00116       -0.04167       -0.37500       -0.45833
 BRILLOUIN|   734           0.00116       -0.04167       -0.37500       -0.37500
 BRILLOUIN|   735           0.00116       -0.04167       -0.37500       -0.29167
 BRILLOUIN|   736           0.00116       -0.04167       -0.37500       -0.20833
 BRILLOUIN|   737           0.00116       -0.04167       -0.37500       -0.12500
 BRILLOUIN|   738           0.00116       -0.04167       -0.37500       -0.04167
 BRILLOUIN|   739           0.00116       -0.04167       -0.37500        0.04167
 BRILLOUIN|   740           0.00116       -0.04167       -0.37500        0.12500
 BRILLOUIN|   741           0.00116       -0.04167       -0.37500        0.20833
 BRILLOUIN|   742           0.00116       -0.04167       -0.37500        0.29167
 BRILLOUIN|   743           0.00116       -0.04167       -0.37500        0.37500
 BRILLOUIN|   744           0.00116       -0.04167       -0.37500        0.45833
 BRILLOUIN|   745           0.00116       -0.04167       -0.29167       -0.45833
 BRILLOUIN|   746           0.00116       -0.04167       -0.29167       -0.37500
 BRILLOUIN|   747           0.00116       -0.04167       -0.29167       -0.29167
 BRILLOUIN|   748           0.00116       -0.04167       -0.29167       -0.20833
 BRILLOUIN|   749           0.00116       -0.04167       -0.29167       -0.12500
 BRILLOUIN|   750           0.00116       -0.04167       -0.29167       -0.04167
 BRILLOUIN|   751           0.00116       -0.04167       -0.29167        0.04167
 BRILLOUIN|   752           0.00116       -0.04167       -0.29167        0.12500
 BRILLOUIN|   753           0.00116       -0.04167       -0.29167        0.20833
 BRILLOUIN|   754           0.00116       -0.04167       -0.29167        0.29167
 BRILLOUIN|   755           0.00116       -0.04167       -0.29167        0.37500
 BRILLOUIN|   756           0.00116       -0.04167       -0.29167        0.45833
 BRILLOUIN|   757           0.00116       -0.04167       -0.20833       -0.45833
 BRILLOUIN|   758           0.00116       -0.04167       -0.20833       -0.37500
 BRILLOUIN|   759           0.00116       -0.04167       -0.20833       -0.29167
 BRILLOUIN|   760           0.00116       -0.04167       -0.20833       -0.20833
 BRILLOUIN|   761           0.00116       -0.04167       -0.20833       -0.12500
 BRILLOUIN|   762           0.00116       -0.04167       -0.20833       -0.04167
 BRILLOUIN|   763           0.00116       -0.04167       -0.20833        0.04167
 BRILLOUIN|   764           0.00116       -0.04167       -0.20833        0.12500
 BRILLOUIN|   765           0.00116       -0.04167       -0.20833        0.20833
 BRILLOUIN|   766           0.00116       -0.04167       -0.20833        0.29167
 BRILLOUIN|   767           0.00116       -0.04167       -0.20833        0.37500
 BRILLOUIN|   768           0.00116       -0.04167       -0.20833        0.45833
 BRILLOUIN|   769           0.00116       -0.04167       -0.12500       -0.45833
 BRILLOUIN|   770           0.00116       -0.04167       -0.12500       -0.37500
 BRILLOUIN|   771           0.00116       -0.04167       -0.12500       -0.29167
 BRILLOUIN|   772           0.00116       -0.04167       -0.12500       -0.20833
 BRILLOUIN|   773           0.00116       -0.04167       -0.12500       -0.12500
 BRILLOUIN|   774           0.00116       -0.04167       -0.12500       -0.04167
 BRILLOUIN|   775           0.00116       -0.04167       -0.12500        0.04167
 BRILLOUIN|   776           0.00116       -0.04167       -0.12500        0.12500
 BRILLOUIN|   777           0.00116       -0.04167       -0.12500        0.20833
 BRILLOUIN|   778           0.00116       -0.04167       -0.12500        0.29167
 BRILLOUIN|   779           0.00116       -0.04167       -0.12500        0.37500
 BRILLOUIN|   780           0.00116       -0.04167       -0.12500        0.45833
 BRILLOUIN|   781           0.00116       -0.04167       -0.04167       -0.45833
 BRILLOUIN|   782           0.00116       -0.04167       -0.04167       -0.37500
 BRILLOUIN|   783           0.00116       -0.04167       -0.04167       -0.29167
 BRILLOUIN|   784           0.00116       -0.04167       -0.04167       -0.20833
 BRILLOUIN|   785           0.00116       -0.04167       -0.04167       -0.12500
 BRILLOUIN|   786           0.00116       -0.04167       -0.04167       -0.04167
 BRILLOUIN|   787           0.00116       -0.04167       -0.04167        0.04167
 BRILLOUIN|   788           0.00116       -0.04167       -0.04167        0.12500
 BRILLOUIN|   789           0.00116       -0.04167       -0.04167        0.20833
 BRILLOUIN|   790           0.00116       -0.04167       -0.04167        0.29167
 BRILLOUIN|   791           0.00116       -0.04167       -0.04167        0.37500
 BRILLOUIN|   792           0.00116       -0.04167       -0.04167        0.45833
 BRILLOUIN|   793           0.00116       -0.04167        0.04167       -0.45833
 BRILLOUIN|   794           0.00116       -0.04167        0.04167       -0.37500
 BRILLOUIN|   795           0.00116       -0.04167        0.04167       -0.29167
 BRILLOUIN|   796           0.00116       -0.04167        0.04167       -0.20833
 BRILLOUIN|   797           0.00116       -0.04167        0.04167       -0.12500
 BRILLOUIN|   798           0.00116       -0.04167        0.04167       -0.04167
 BRILLOUIN|   799           0.00116       -0.04167        0.04167        0.04167
 BRILLOUIN|   800           0.00116       -0.04167        0.04167        0.12500
 BRILLOUIN|   801           0.00116       -0.04167        0.04167        0.20833
 BRILLOUIN|   802           0.00116       -0.04167        0.04167        0.29167
 BRILLOUIN|   803           0.00116       -0.04167        0.04167        0.37500
 BRILLOUIN|   804           0.00116       -0.04167        0.04167        0.45833
 BRILLOUIN|   805           0.00116       -0.04167        0.12500       -0.45833
 BRILLOUIN|   806           0.00116       -0.04167        0.12500       -0.37500
 BRILLOUIN|   807           0.00116       -0.04167        0.12500       -0.29167
 BRILLOUIN|   808           0.00116       -0.04167        0.12500       -0.20833
 BRILLOUIN|   809           0.00116       -0.04167        0.12500       -0.12500
 BRILLOUIN|   810           0.00116       -0.04167        0.12500       -0.04167
 BRILLOUIN|   811           0.00116       -0.04167        0.12500        0.04167
 BRILLOUIN|   812           0.00116       -0.04167        0.12500        0.12500
 BRILLOUIN|   813           0.00116       -0.04167        0.12500        0.20833
 BRILLOUIN|   814           0.00116       -0.04167        0.12500        0.29167
 BRILLOUIN|   815           0.00116       -0.04167        0.12500        0.37500
 BRILLOUIN|   816           0.00116       -0.04167        0.12500        0.45833
 BRILLOUIN|   817           0.00116       -0.04167        0.20833       -0.45833
 BRILLOUIN|   818           0.00116       -0.04167        0.20833       -0.37500
 BRILLOUIN|   819           0.00116       -0.04167        0.20833       -0.29167
 BRILLOUIN|   820           0.00116       -0.04167        0.20833       -0.20833
 BRILLOUIN|   821           0.00116       -0.04167        0.20833       -0.12500
 BRILLOUIN|   822           0.00116       -0.04167        0.20833       -0.04167
 BRILLOUIN|   823           0.00116       -0.04167        0.20833        0.04167
 BRILLOUIN|   824           0.00116       -0.04167        0.20833        0.12500
 BRILLOUIN|   825           0.00116       -0.04167        0.20833        0.20833
 BRILLOUIN|   826           0.00116       -0.04167        0.20833        0.29167
 BRILLOUIN|   827           0.00116       -0.04167        0.20833        0.37500
 BRILLOUIN|   828           0.00116       -0.04167        0.20833        0.45833
 BRILLOUIN|   829           0.00116       -0.04167        0.29167       -0.45833
 BRILLOUIN|   830           0.00116       -0.04167        0.29167       -0.37500
 BRILLOUIN|   831           0.00116       -0.04167        0.29167       -0.29167
 BRILLOUIN|   832           0.00116       -0.04167        0.29167       -0.20833
 BRILLOUIN|   833           0.00116       -0.04167        0.29167       -0.12500
 BRILLOUIN|   834           0.00116       -0.04167        0.29167       -0.04167
 BRILLOUIN|   835           0.00116       -0.04167        0.29167        0.04167
 BRILLOUIN|   836           0.00116       -0.04167        0.29167        0.12500
[...]
 -                                                                             -
 -------------------------------------------------------------------------------
 COUNTER                                    TOTAL       BLAS       SMM       ACC
 flops inhomo. stacks                           0       0.0%      0.0%      0.0%
 flops total                         0.000000E+00       0.0%      0.0%      0.0%
 flops max/rank                      0.000000E+00       0.0%      0.0%      0.0%
 matmuls inhomo. stacks                         0       0.0%      0.0%      0.0%
 matmuls total                                  0       0.0%      0.0%      0.0%
 number of processed stacks                     0       0.0%      0.0%      0.0%
 average stack size                                     0.0       0.0       0.0
 marketing flops                     0.000000E+00
 -------------------------------------------------------------------------------
 -                                                                             -
 -                      DBCSR MESSAGE PASSING PERFORMANCE                      -
 -                                                                             -
 -------------------------------------------------------------------------------
 ROUTINE             CALLS      AVE VOLUME [Bytes]
 MP_Bcast                1                     12.
 MP_Allreduce           19                     21.
 MP_Alltoall       1702196                  13968.
 -------------------------------------------------------------------------------

 -------------------------------------------------------------------------------
 -                                                                             -
 -                                DBM STATISTICS                               -
 -                                                                             -
 -------------------------------------------------------------------------------
    M  x    N  x    K                                          COUNT     PERCENT
 -------------------------------------------------------------------------------

 -------------------------------------------------------------------------------
 -                                                                             -
 -                                GRID STATISTICS                              -
 -                                                                             -
 -------------------------------------------------------------------------------
 LP    KERNEL             BACKEND                              COUNT     PERCENT
 6     collocate ortho    CPU                                 811080      51.28%
 6     integrate ortho    CPU                                 770526      48.72%
 0     collocate general  CPU                                      4       0.00%
 0     integrate general  CPU                                      2       0.00%
 -------------------------------------------------------------------------------

 MEMORY| Estimated peak process memory [MiB]                                2387

 -------------------------------------------------------------------------------
 ----                             MULTIGRID INFO                            ----
 -------------------------------------------------------------------------------
 count for grid        1:         300660          cutoff [a.u.]          500.00
 count for grid        2:         223970          cutoff [a.u.]          166.67
 count for grid        3:         164030          cutoff [a.u.]           55.56
 count for grid        4:         188638          cutoff [a.u.]           18.52
 total gridlevel count  :         877298

 -------------------------------------------------------------------------------
 -                                                                             -
 -                         MESSAGE PASSING PERFORMANCE                         -
 -                                                                             -
 -------------------------------------------------------------------------------

 ROUTINE             CALLS      AVE VOLUME [Bytes]
 MP_Group                5
 MP_Bcast           591177                    976.
 MP_Allreduce       184606                    110.
 MP_Sync                 4
 MP_Alltoall           387                 662036.
 MP_SendRecv          1230                  47248.
 MP_ISendRecv         1155                  46268.
 MP_Wait            401295
 MP_comm_split           3
 MP_ISend           412452                   1626.
 MP_IRecv           689472                    975.
 -------------------------------------------------------------------------------


 -------------------------------------------------------------------------------
 -                                                                             -
 -                           R E F E R E N C E S                               -
 -                                                                             -
 -------------------------------------------------------------------------------
 
 CP2K version 2025.1 (Development Version), the CP2K developers group (2025).
 CP2K is freely available from https://www.cp2k.org/ .
 
 T. D. Kuehne, M. Iannuzzi, M. Del Ben, V. V. Rybkin, P. Seewald, F. Stein, T. 
 Laino, R. Z. Khaliullin, O. Schuett, F. Schiffmann, D. Golze, J. Wilhelm, S. 
 Chulkov, M. H. Bani-Hashemian, V. Weber, U. Borstnik, M. Taillefumier, A. S. 
 Jakobovits, A. Lazzaro, H. Pabst, T. Mueller, R. Schade, M. Guidon, S. 
 Andermatt, N. Holmberg, G. K. Schenter, A. Hehn, A. Bussy, F. Belleflamme, G. 
 Tabacchi, A. Gloess, M. Lass, I. Bethune, C. J. Mundy, C. Plessl, M. Watkins, 
 J. VandeVondele, M. Krack, J. Hutter.
 J. Chem. Phys. 152, 194103 (2020).
 CP2K: An electronic structure and molecular dynamics software package - 
 Quickstep: Efficient and accurate electronic structure calculations.
 https://doi.org/10.1063/5.0007045

 O. Schuett, P. Messmer, J. Hutter, J. VandeVondele.
 Electronic Structure Calculations on Graphics Processing Units, 173-190 (2016).
 GPU-Accelerated Sparse Matrix-Matrix Multiplication for Linear Scaling Density 
 Functional Theory.
 https://doi.org/10.1002/9781118670712.ch8

 J. Hutter, M. Iannuzzi, F. Schiffmann, J. VandeVondele.
 WIREs Comput Mol Sci. 4, 15-25 (2014).
 CP2K: atomistic simulations of condensed matter systems.
 https://doi.org/10.1002/wcms.1159

 U. Borstnik, J. VandeVondele, V. Weber, J. Hutter.
 Parallel Comput. 40, 47-58 (2014).
 Sparse matrix multiplication: The distributed block-compressed sparse row 
 library.
 https://doi.org/10.1016/j.parco.2014.03.012

 J. VandeVondele, J. Hutter.
 J. Chem. Phys. 127, 114105 (2007).
 Gaussian basis sets for accurate calculations on molecular systems in gas and 
 condensed phases.
 https://doi.org/10.1063/1.2770708

 J. VandeVondele, M. Krack, F. Mohamed, M. Parrinello, T. Chassaing, J. Hutter.
 Comput. Phys. Commun. 167, 103-128 (2005).
 QUICKSTEP: Fast and accurate density functional calculations using a mixed 
 Gaussian and plane waves approach.
 https://doi.org/10.1016/j.cpc.2004.12.014

 M. Krack.
 Theor. Chem. Acc. 114, 145-152 (2005).
 Pseudopotentials for H to Kr optimized for gradient-corrected 
 exchange-correlation functionals.
 https://doi.org/10.1007/s00214-005-0655-y

 M. Frigo, S. G. Johnson.
 Proc. IEEE 93, 216-231 (2005).
 The design and implementation of FFTW3.
 https://doi.org/10.1109/JPROC.2004.840301

 C. Hartwigsen, S. Goedecker, J. Hutter.
 Phys. Rev. B 58, 3641-3662 (1998).
 Relativistic separable dual-space Gaussian pseudopotentials from H to Rn.
 https://doi.org/10.1103/PhysRevB.58.3641

 G. Lippert, J. Hutter, M. Parrinello.
 Mol. Phys. 92, 477-487 (1997).
 A hybrid Gaussian and plane wave density functional scheme.
 https://doi.org/10.1080/002689797170220

 S. Goedecker, M. Teter, J. Hutter.
 Phys. Rev. B 54, 1703-1710 (1996).
 Separable dual-space Gaussian pseudopotentials.
 https://doi.org/10.1103/PhysRevB.54.1703

 J. P. Perdew, K. Burke, M. Ernzerhof.
 Phys. Rev. Lett. 77, 3865-3868 (1996).
 Generalized gradient approximation made simple.
 https://doi.org/10.1103/PhysRevLett.77.3865


 -------------------------------------------------------------------------------
 -                                                                             -
 -                                T I M I N G                                  -
 -                                                                             -
 -------------------------------------------------------------------------------
 SUBROUTINE                       CALLS  ASD         SELF TIME        TOTAL TIME
                                MAXIMUM       AVERAGE  MAXIMUM  AVERAGE  MAXIMUM
 CP2K                                 1  1.0    0.023    0.032 2347.432 2347.433
 qs_energies                          1  2.0    0.010    0.010 2347.126 2347.139
 mp_alltoall_i22                 292298  9.0 1736.553 2128.899 1736.553 2128.899
 scf_env_do_scf                       1  3.0    0.000    0.000 1891.909 1891.909
 scf_env_do_scf_inner_loop           19  4.0    0.051    0.057 1891.909 1891.909
 qs_scf_new_mos_kp                   19  5.0    0.000    0.000 1870.024 1872.579
 do_general_diag_kp                  19  6.0    0.362    0.453 1870.024 1872.579
 dbcsr_desymmetrize_deep         171945  7.7    2.668    3.983 1275.743 1559.052
 rskp_transform                   42212  7.2  279.135 1502.707  279.135 1502.707
 dbcsr_complete_redistribute     120353  8.4    4.406    5.606  522.460  631.162
 kpoint_density_transform            19  7.0    0.150    0.205  604.524  605.191
 copy_fm_to_dbcsr                 32832  8.0    0.195    0.245  488.689  596.358
 transform_dmat                   16416  8.0  107.764  579.177  107.764  579.177
 qs_energies_properties               1  3.0    0.000    0.000  448.544  448.555
 post_scf_bandstructure               1  4.0    0.000    0.000  448.544  448.555
 rsmat_to_kp                       9380  7.0    0.155    0.182  356.130  356.182
 soc                                  1  5.0    0.001    0.001  228.923  228.923
 H_KS_spinor_kp                       1  6.0    0.034    0.040  226.032  228.192
 create_and_init_bs_env               1  5.0    0.000    0.000  174.397  174.398
 compute_cfm_mo_coeff_kp_and_ei       1  6.0    0.033    0.038  174.393  174.393
 cp_cfm_heevd                      7680  7.8    0.012    0.014   76.307   76.467
 cp_cfm_heevd_base                 7680  8.8   76.295   76.456   76.295   76.456
 copy_dbcsr_to_fm                 87521  7.2    0.931    1.090   57.461   58.003
 dos_pdos_ldos                        1  5.0    0.023    0.026   45.224   45.237
 SOC_ev                            1876  6.0    0.049    0.053   43.046   43.104
 cp_cfm_geeig_canon                2902  7.0    0.065    0.070   41.996   42.173
 qs_ks_update_qs_env                 19  5.0    0.000    0.000    6.086   17.722
 cp_fm_start_copy_general         98496  7.3    1.758    2.478   15.963   16.135
 rebuild_ks_matrix                   19  6.0    0.000    0.000    3.546   15.181
 qs_ks_build_kohn_sham_matrix        19  7.0    0.096    0.102    3.546   15.181
 transfer_rs2pw                      82  8.0    0.001    0.001   11.804   14.473
 transfer_rs2pw_500                  22  8.9    0.024    0.026   11.778   14.447
 mp_sendrecv_dv                    1230 10.0   11.773   14.443   11.773   14.443
 sum_up_and_integrate                19  8.0    0.000    0.000    2.869   14.429
 integrate_v_rspace                  19  9.0    0.080    0.426    2.868   14.428
 grid_integrate_task_list            19 10.0    2.600   13.889    2.600   13.889
 mp_alltoall_d11v                876894  9.6   11.633   13.255   11.633   13.255
 dbcsr_finalize                  432181  8.5    1.847    2.089   11.860   12.485
 V_SOC_xyz_from_pseudopotential       1  6.0    0.094    0.099    2.891   12.455
 mp_sum_iv                         3772  9.0    9.979   12.216    9.979   12.216
 alloc_cfm_double_array_1d            1  7.0    0.008    0.009    9.680   11.840
 create_cfm_double                 1876  8.0    0.058    0.068    9.671   11.833
 qs_rho_update_rho_low               20  5.0    0.000    0.000   10.675   10.716
 calculate_rho_elec                  20  6.0    0.011    0.047   10.674   10.716
 density_rs2pw                       20  7.0    0.001    0.001    8.712   10.668
 grid_collocate_task_list            20  7.0    1.950   10.306    1.950   10.306
 mp_allgather_i                  196992  8.3    9.865   10.134    9.865   10.134
 mp_cart_sub                     175045  9.2    9.945   10.032    9.945   10.032
 dbcsr_create_new                620436  8.2    6.785    9.029    7.329    9.697
 mp_alltoall_i11v                533004  9.2    8.452    9.491    8.452    9.491
 hybrid_alltoall_any             171945  8.7    0.715    0.840    7.866    9.321
 build_core_ppnl                      2  6.0    1.707    9.204    1.707    9.204
 cp_dbcsr_alloc_block_from_nbl    62204  6.6    1.546    7.611    1.824    8.771
 dbcsr_merge_all                 129638 10.4    4.802    5.564    7.008    7.659
 cp_cfm_gemm                      18086  8.5    7.466    7.557    7.466    7.557
 mp_cart_create                   87527  9.2    5.560    5.819    5.560    5.819
 parallel_gemm_cfm                 9380  7.0    0.011    0.011    5.301    5.362
 parallel_gemm_cfm_gemm            9380  8.0    0.011    0.012    5.291    5.352
 qs_energies_init_hamiltonians        1  3.0    0.000    0.000    4.557    4.557
 build_core_hamiltonian_matrix        1  4.0    0.011    0.011    0.870    3.985
 qs_env_update_s_mstruct              1  4.0    0.000    0.000    3.248    3.875
 calculate_rho_core                   1  5.0    0.000    0.002    3.123    3.843
 copy_fm_to_dbcsr_bc              32832  9.0    0.445    0.529    1.819    3.546
 dbcsr_work_create               301583  9.0    1.733    1.950    2.852    3.429
 dbcsr_dot                       117611  8.0    0.598    1.259    3.206    3.379
 mp_bcast_iv                     394011  8.3    2.983    3.226    2.983    3.226
 kpoint_set_mo_occupation            19  7.0    2.839    2.856    3.072    3.216
 mp_sum_d                        118183  9.0    2.677    3.107    2.677    3.107
 write_kpoints_restart               19  5.0    0.016    0.025    3.071    3.071
 add_to_DOS_PDOS                   3752  6.5    2.736    2.818    2.736    2.818
 dbcsr_iterator_start            974886  9.1    2.161    2.403    2.448    2.787
 dbcsr_data_new                 3247937  9.8    1.936    2.597    1.936    2.597
 evaluate_core_matrix_traces         19  6.0    0.000    0.000    2.540    2.540
 calculate_ptrace_kp                 38  7.0    0.086    0.095    2.540    2.540
 dbcsr_work_destroy_all          301583 10.0    1.358    1.449    2.108    2.269
 self_consistency_check              19  5.0    0.082    0.090    2.029    2.155
 copy_dbcsr_to_fm_bc              87521  8.2    0.892    0.975    2.054    2.134
 tree_to_linear_d                120353 11.4    1.701    2.088    1.701    2.088
 cp_sm_mix                        58805  6.0    0.209    0.557    1.835    2.002
 dbcsr_data_release             4566713 10.2    1.690    1.985    1.690    1.985
 dbcsr_copy                      162822  7.0    0.808    1.046    1.469    1.955
 dbcsr_destroy                   493541  8.1    0.787    0.880    1.539    1.801
 mp_max_d                         58807  7.0    1.484    1.735    1.484    1.735
 dbcsr_add_d                       9285  7.0    0.009    0.011    0.560    1.658
 dbcsr_add_anytype                 9285  8.0    0.029    0.133    0.551    1.648
 dbcsr_iterator_stop             974886  9.1    1.277    1.347    1.504    1.596
 init_scf_run                         1  3.0    0.000    0.000    1.300    1.469
 scf_env_initial_rho_setup            1  4.0    0.000    0.000    1.300    1.469
 dbcsr_reserve_blocks             95036  8.8    0.402    1.326    0.444    1.415
 cp_fm_write_unformatted           3095  6.0    0.798    1.163    0.853    1.284
 compute_proj_mo_on_kind           1876  6.0    0.050    0.053    1.176    1.263
 add_cfm_submat                   15008  7.0    0.133    0.147    1.201    1.244
 quick_finalize                  171945  9.7    0.469    0.650    0.786    1.136
 dbcsr_set                       353414  7.8    0.327    0.380    0.546    1.125
 cp_fm_finish_copy_general        36936  7.9    0.903    0.952    0.960    1.056
 mp_comm_free                    264477  9.1    0.842    1.024    0.842    1.024
 mixing_allocate                      1  3.0    0.018    0.018    0.232    0.976
 calculate_first_density_matrix       1  5.0    0.002    0.002    0.764    0.933
 calculate_atomic_block_dm            1  6.0    0.001    0.001    0.757    0.927
 mp_bcast_im                     196992  8.3    0.881    0.902    0.881    0.902
 kpoint_density_matrices             19  7.0    0.025    0.026    0.738    0.811
 parallel_gemm_fm                  4104  8.0    0.004    0.004    0.694    0.765
 parallel_gemm_fm_gemm             4104  9.0    0.004    0.004    0.690    0.762
 cp_fm_gemm                        4104 10.0    0.687    0.758    0.687    0.758
 dbcsr_zero                      353414  8.8    0.219    0.745    0.219    0.745
 cp_fm_to_fm_submat               30016  8.0    0.710    0.734    0.710    0.734
 dbcsr_copy_into_existing         35927  9.7    0.253    0.476    0.455    0.689
 mp_waitall_1                    401295  8.4    0.252    0.615    0.252    0.615
 build_overlap_matrix_low             1  5.0    0.034    0.102    0.138    0.571
 build_kinetic_matrix_low             1  5.0    0.034    0.100    0.136    0.557
 calculate_ecore_overlap              1  4.0    0.000    0.000    0.404    0.498
 qs_env_rebuild_rho                   1  5.0    0.000    0.000    0.115    0.480
 qs_rho_rebuild                       1  6.0    0.009    0.009    0.115    0.480
 qs_scf_ensure_work_matrices          1  3.0    0.000    0.000    0.366    0.450
 dbcsr_sort_indices              387334 11.1    0.217    0.446    0.217    0.446
 dbcsr_make_index_exist          620436  9.2    0.339    0.438    0.339    0.438
 dbcsr_iterator_seek             974886 10.1    0.287    0.423    0.287    0.423
 build_core_ppl                       1  5.0    0.074    0.413    0.074    0.413
 mp_send_dv                        3095  7.0    0.048    0.386    0.048    0.386
 mp_sum_dm3                          19  8.0    0.233    0.382    0.233    0.382
 dbcsr_scale_anytype               9286  9.0    0.068    0.092    0.345    0.373
 dbcsr_reserve_all_blocks         32832 10.0    0.049    0.066    0.242    0.318
 fft_wrap_pw1pw2                    347 10.0    0.002    0.003    0.244    0.288
 merge_index                     129638 11.4    0.235    0.288    0.235    0.288
 mp_isend_dv                      98496  8.3    0.264    0.284    0.264    0.284
 cp_cfm_scale_and_add_fm          34120  7.9    0.249    0.272    0.249    0.272
 fft3d_ps                           347 12.0    0.050    0.053    0.217    0.262
 fft_wrap_pw1pw2_500                230 11.3    0.007    0.008    0.218    0.262
 dbcsr_switch_data_area          171945 10.7    0.165    0.176    0.222    0.245
 -------------------------------------------------------------------------------

 The number of warnings for this run is : 1
 
 -------------------------------------------------------------------------------
  **** **** ******  **  PROGRAM ENDED AT                 2025-08-07 22:58:40.098
 ***** ** ***  *** **   PROGRAM RAN ON                              i04r10c05s03
 **    ****   ******    PROGRAM RAN BY                                   di38fab
 ***** **    ** ** **   PROGRAM PROCESS ID                               1026076
  **** **  *******  **  PROGRAM STOPPED IN /hppfs/scratch/04/di38fab/09_GTH/Delt
                                           a_Set/Ta/aug-TZVP-MOLOPT-GTH-tier-1/1
                                           2x12x12
