 DBCSR| CPU Multiplication driver                                           BLAS (U)
 DBCSR| Multrec recursion limit                                              512 (U)
 DBCSR| Multiplication stack size                                           1000 (D)
 DBCSR| Maximum elements for images                                    UNLIMITED (U)
 DBCSR| Multiplicative factor virtual images                                   1 (U)
 DBCSR| Use multiplication densification                                       T (D)
 DBCSR| Multiplication size stacks                                             3 (U)
 DBCSR| Use memory pool for CPU allocation                                     F (U)
 DBCSR| Number of 3D layers                                               SINGLE (U)
 DBCSR| Use MPI memory allocation                                              F (U)
 DBCSR| Use RMA algorithm                                                      F (U)
 DBCSR| Use Communication thread                                               T (U)
 DBCSR| Communication thread load                                             45 (D)
 DBCSR| MPI: My process id                                                     0
 DBCSR| MPI: Number of processes                                               8
 DBCSR| OMP: Current number of threads                                        12
 DBCSR| OMP: Max number of threads                                            12
 DBCSR| Split modifier for TAS multiplication algorithm                  1.0E+00 (U)


  **** **** ******  **  PROGRAM STARTED AT               2025-08-03 17:09:25.572
 ***** ** ***  *** **   PROGRAM STARTED ON                          i06r04c02s03
 **    ****   ******    PROGRAM STARTED BY                               di38fab
 ***** **    ** ** **   PROGRAM PROCESS ID                               3133941
  **** **  *******  **  PROGRAM STARTED IN /hppfs/scratch/04/di38fab/09_GTH/Delt
                                           a_Set/P/DZVP-MOLOPT-PBE-GTH/8x8x8

 CP2K| version string:                 CP2K version 2025.1 (Development Version)
 CP2K| source code revision number:                                  git:3130539
 CP2K| cp2kflags: omp libint fftw3 libxc parallel scalapack max_contr=4         
 CP2K| is freely available from                            https://www.cp2k.org/
 CP2K| Program compiled at                         Tue Jun  3 16:14:32 CEST 2025
 CP2K| Program compiled on                                               login01
 CP2K| Program compiled for                                        Supermuc-foss
 CP2K| Data directory path                  /hppfs/work/pn36zo/di38fab/cp2k/data
 CP2K| Input file name                                                    GW.inp

 GLOBAL| Force Environment number                                              1
 GLOBAL| Basis set file name            /hppfs/scratch/04/di38fab/09_GTH/BASIS_A
 GLOBAL| Potential file name            /hppfs/work/pn36zo/di38fab/cp2k/data/GTH
 GLOBAL| MM Potential file name                                     MM_POTENTIAL
 GLOBAL| Coordinate file name                                              P.cif
 GLOBAL| Method name                                                        CP2K
 GLOBAL| Project name                                                       WSe2
 GLOBAL| Run type                                                         ENERGY
 GLOBAL| FFT library                                                       FFTW3
 GLOBAL| Diagonalization library                                       ScaLAPACK
 GLOBAL| Cholesky decomposition library                                ScaLAPACK
 GLOBAL| DGEMM library                                                      BLAS
 GLOBAL| Orthonormality check for eigenvectors                          DISABLED
 GLOBAL| Matrix multiplication library                                 ScaLAPACK
 GLOBAL| All-to-all communication in single precision                          F
 GLOBAL| FFTs using library dependent lengths                                  F
 GLOBAL| Grid backend                                                       AUTO
 GLOBAL| Global print level                                               MEDIUM
 GLOBAL| MPI I/O enabled                                                       T
 GLOBAL| Total number of message passing processes                             8
 GLOBAL| Number of threads for this process                                   12
 GLOBAL| This output is from process                                           0
 GLOBAL| OpenMP stack size per thread (OMP_STACKSIZE)                    default
 GLOBAL| CPU model name             Intel(R) Xeon(R) Platinum 8174 CPU @ 3.10GHz

 MEMORY| system memory details [Kb]
 MEMORY|                        rank 0           min           max       average
 MEMORY| MemTotal             98436736      98436664      98436736      98436700
 MEMORY| MemFree              84597656      84597656      84684220      84640938
 MEMORY| Buffers                     0             0             0             0
 MEMORY| Cached                2379924       2379124       2379924       2379524
 MEMORY| Slab                  1262148       1259240       1262148       1260694
 MEMORY| SReclaimable           278964        278048        278964        278506
 MEMORY| MemLikelyFree        87256544      87256544      87341392      87298968


 *** Fundamental physical constants (SI units) ***

 *** Literature: B. J. Mohr and B. N. Taylor,
 ***             CODATA recommended values of the fundamental physical
 ***             constants: 2006, Web Version 5.1
 ***             http://physics.nist.gov/constants

 Speed of light in vacuum [m/s]                             2.99792458000000E+08
 Magnetic constant or permeability of vacuum [N/A**2]       1.25663706143592E-06
 Electric constant or permittivity of vacuum [F/m]          8.85418781762039E-12
 Planck constant (h) [J*s]                                  6.62606896000000E-34
 Planck constant (h-bar) [J*s]                              1.05457162825177E-34
 Elementary charge [C]                                      1.60217648700000E-19
 Electron mass [kg]                                         9.10938215000000E-31
 Electron g factor [ ]                                     -2.00231930436220E+00
 Proton mass [kg]                                           1.67262163700000E-27
 Fine-structure constant                                    7.29735253760000E-03
 Rydberg constant [1/m]                                     1.09737315685270E+07
 Avogadro constant [1/mol]                                  6.02214179000000E+23
 Boltzmann constant [J/K]                                   1.38065040000000E-23
 Atomic mass unit [kg]                                      1.66053878200000E-27
 Bohr radius [m]                                            5.29177208590000E-11

 *** Conversion factors ***

 [u] -> [a.u.]                                              1.82288848426455E+03
 [Angstrom] -> [Bohr] = [a.u.]                              1.88972613288564E+00
 [a.u.] = [Bohr] -> [Angstrom]                              5.29177208590000E-01
 [a.u.] -> [s]                                              2.41888432650478E-17
 [a.u.] -> [fs]                                             2.41888432650478E-02
 [a.u.] -> [J]                                              4.35974393937059E-18
 [a.u.] -> [N]                                              8.23872205491840E-08
 [a.u.] -> [K]                                              3.15774647902944E+05
 [a.u.] -> [kJ/mol]                                         2.62549961709828E+03
 [a.u.] -> [kcal/mol]                                       6.27509468713739E+02
 [a.u.] -> [Pa]                                             2.94210107994716E+13
 [a.u.] -> [bar]                                            2.94210107994716E+08
 [a.u.] -> [atm]                                            2.90362800883016E+08
 [a.u.] -> [eV]                                             2.72113838565563E+01
 [a.u.] -> [Hz]                                             6.57968392072181E+15
 [a.u.] -> [1/cm] (wave numbers)                            2.19474631370540E+05
 [a.u./Bohr**2] -> [1/cm]                                   5.14048714338585E+03
 

 CELL_TOP| Volume [angstrom^3]:                                       171.034074
 CELL_TOP| Vector a [angstrom     3.305     0.000     0.000   |a| =     3.304660
 CELL_TOP| Vector b [angstrom     0.000    11.317     0.000   |b| =    11.316940
 CELL_TOP| Vector c [angstrom     0.000     0.000     4.573   |c| =     4.573270
 CELL_TOP| Angle (b,c), alpha [degree]:                                90.000000
 CELL_TOP| Angle (a,c), beta  [degree]:                                90.000000
 CELL_TOP| Angle (a,b), gamma [degree]:                                90.000000
 CELL_TOP| Numerically orthorhombic:                                         YES
 CELL_TOP| Periodicity                                                       XYZ

 CELL_CIF| Volume [angstrom^3]:                                       171.034074
 CELL_CIF| Vector a [angstrom     3.305     0.000     0.000   |a| =     3.304660
 CELL_CIF| Vector b [angstrom     0.000    11.317     0.000   |b| =    11.316940
 CELL_CIF| Vector c [angstrom     0.000     0.000     4.573   |c| =     4.573270
 CELL_CIF| Angle (b,c), alpha [degree]:                                90.000000
 CELL_CIF| Angle (a,c), beta  [degree]:                                90.000000
 CELL_CIF| Angle (a,b), gamma [degree]:                                90.000000
 CELL_CIF| Numerically orthorhombic:                                         YES
 CELL_CIF| Periodicity                                                       XYZ

 GENERATE|  Preliminary Number of Bonds generated:                             0
 GENERATE|  Achieved consistency in connectivity generation.

 CELL| Volume [angstrom^3]:                                           171.034074
 CELL| Vector a [angstrom]:       3.305     0.000     0.000   |a| =     3.304660
 CELL| Vector b [angstrom]:       0.000    11.317     0.000   |b| =    11.316940
 CELL| Vector c [angstrom]:       0.000     0.000     4.573   |c| =     4.573270
 CELL| Angle (b,c), alpha [degree]:                                    90.000000
 CELL| Angle (a,c), beta  [degree]:                                    90.000000
 CELL| Angle (a,b), gamma [degree]:                                    90.000000
 CELL| Numerically orthorhombic:                                             YES
 CELL| Periodicity                                                           XYZ

 CELL_REF| Volume [angstrom^3]:                                       171.034074
 CELL_REF| Vector a [angstrom     3.305     0.000     0.000   |a| =     3.304660
 CELL_REF| Vector b [angstrom     0.000    11.317     0.000   |b| =    11.316940
 CELL_REF| Vector c [angstrom     0.000     0.000     4.573   |c| =     4.573270
 CELL_REF| Angle (b,c), alpha [degree]:                                90.000000
 CELL_REF| Angle (a,c), beta  [degree]:                                90.000000
 CELL_REF| Angle (a,b), gamma [degree]:                                90.000000
 CELL_REF| Numerically orthorhombic:                                         YES
 CELL_REF| Periodicity                                                       XYZ

 *** WARNING in cryssym.F:180 :: Symmetry library SPGLIB not available ***


 *******************************************************************************
                                    Kpoints
 *******************************************************************************
 BRILLOUIN| K-point scheme                                        Monkhorst-Pack
 BRILLOUIN| K-Point grid                                             8    8    8
 BRILLOUIN| Accuracy in Symmetry determination                      0.100000E-05
 BRILLOUIN| K-Point point group symmetrization                               OFF
 BRILLOUIN| Wavefunction type                                            COMPLEX
 BRILLOUIN| List of Kpoints [2 Pi/Bohr]                                      256
 BRILLOUIN| Number           Weight            X              Y              Z
 BRILLOUIN|     1           0.00391       -0.43750       -0.43750       -0.43750
 BRILLOUIN|     2           0.00391       -0.43750       -0.43750       -0.31250
 BRILLOUIN|     3           0.00391       -0.43750       -0.43750       -0.18750
 BRILLOUIN|     4           0.00391       -0.43750       -0.43750       -0.06250
 BRILLOUIN|     5           0.00391       -0.43750       -0.43750        0.06250
 BRILLOUIN|     6           0.00391       -0.43750       -0.43750        0.18750
 BRILLOUIN|     7           0.00391       -0.43750       -0.43750        0.31250
 BRILLOUIN|     8           0.00391       -0.43750       -0.43750        0.43750
 BRILLOUIN|     9           0.00391       -0.43750       -0.31250       -0.43750
 BRILLOUIN|    10           0.00391       -0.43750       -0.31250       -0.31250
 BRILLOUIN|    11           0.00391       -0.43750       -0.31250       -0.18750
 BRILLOUIN|    12           0.00391       -0.43750       -0.31250       -0.06250
 BRILLOUIN|    13           0.00391       -0.43750       -0.31250        0.06250
 BRILLOUIN|    14           0.00391       -0.43750       -0.31250        0.18750
 BRILLOUIN|    15           0.00391       -0.43750       -0.31250        0.31250
 BRILLOUIN|    16           0.00391       -0.43750       -0.31250        0.43750
 BRILLOUIN|    17           0.00391       -0.43750       -0.18750       -0.43750
 BRILLOUIN|    18           0.00391       -0.43750       -0.18750       -0.31250
 BRILLOUIN|    19           0.00391       -0.43750       -0.18750       -0.18750
 BRILLOUIN|    20           0.00391       -0.43750       -0.18750       -0.06250
 BRILLOUIN|    21           0.00391       -0.43750       -0.18750        0.06250
 BRILLOUIN|    22           0.00391       -0.43750       -0.18750        0.18750
 BRILLOUIN|    23           0.00391       -0.43750       -0.18750        0.31250
 BRILLOUIN|    24           0.00391       -0.43750       -0.18750        0.43750
 BRILLOUIN|    25           0.00391       -0.43750       -0.06250       -0.43750
 BRILLOUIN|    26           0.00391       -0.43750       -0.06250       -0.31250
 BRILLOUIN|    27           0.00391       -0.43750       -0.06250       -0.18750
 BRILLOUIN|    28           0.00391       -0.43750       -0.06250       -0.06250
 BRILLOUIN|    29           0.00391       -0.43750       -0.06250        0.06250
 BRILLOUIN|    30           0.00391       -0.43750       -0.06250        0.18750
 BRILLOUIN|    31           0.00391       -0.43750       -0.06250        0.31250
 BRILLOUIN|    32           0.00391       -0.43750       -0.06250        0.43750
 BRILLOUIN|    33           0.00391       -0.43750        0.06250       -0.43750
 BRILLOUIN|    34           0.00391       -0.43750        0.06250       -0.31250
 BRILLOUIN|    35           0.00391       -0.43750        0.06250       -0.18750
 BRILLOUIN|    36           0.00391       -0.43750        0.06250       -0.06250
 BRILLOUIN|    37           0.00391       -0.43750        0.06250        0.06250
 BRILLOUIN|    38           0.00391       -0.43750        0.06250        0.18750
 BRILLOUIN|    39           0.00391       -0.43750        0.06250        0.31250
 BRILLOUIN|    40           0.00391       -0.43750        0.06250        0.43750
 BRILLOUIN|    41           0.00391       -0.43750        0.18750       -0.43750
 BRILLOUIN|    42           0.00391       -0.43750        0.18750       -0.31250
 BRILLOUIN|    43           0.00391       -0.43750        0.18750       -0.18750
 BRILLOUIN|    44           0.00391       -0.43750        0.18750       -0.06250
 BRILLOUIN|    45           0.00391       -0.43750        0.18750        0.06250
 BRILLOUIN|    46           0.00391       -0.43750        0.18750        0.18750
 BRILLOUIN|    47           0.00391       -0.43750        0.18750        0.31250
 BRILLOUIN|    48           0.00391       -0.43750        0.18750        0.43750
 BRILLOUIN|    49           0.00391       -0.43750        0.31250       -0.43750
 BRILLOUIN|    50           0.00391       -0.43750        0.31250       -0.31250
 BRILLOUIN|    51           0.00391       -0.43750        0.31250       -0.18750
 BRILLOUIN|    52           0.00391       -0.43750        0.31250       -0.06250
 BRILLOUIN|    53           0.00391       -0.43750        0.31250        0.06250
 BRILLOUIN|    54           0.00391       -0.43750        0.31250        0.18750
 BRILLOUIN|    55           0.00391       -0.43750        0.31250        0.31250
 BRILLOUIN|    56           0.00391       -0.43750        0.31250        0.43750
 BRILLOUIN|    57           0.00391       -0.43750        0.43750       -0.43750
 BRILLOUIN|    58           0.00391       -0.43750        0.43750       -0.31250
 BRILLOUIN|    59           0.00391       -0.43750        0.43750       -0.18750
 BRILLOUIN|    60           0.00391       -0.43750        0.43750       -0.06250
 BRILLOUIN|    61           0.00391       -0.43750        0.43750        0.06250
 BRILLOUIN|    62           0.00391       -0.43750        0.43750        0.18750
 BRILLOUIN|    63           0.00391       -0.43750        0.43750        0.31250
 BRILLOUIN|    64           0.00391       -0.43750        0.43750        0.43750
 BRILLOUIN|    65           0.00391       -0.31250       -0.43750       -0.43750
 BRILLOUIN|    66           0.00391       -0.31250       -0.43750       -0.31250
 BRILLOUIN|    67           0.00391       -0.31250       -0.43750       -0.18750
 BRILLOUIN|    68           0.00391       -0.31250       -0.43750       -0.06250
 BRILLOUIN|    69           0.00391       -0.31250       -0.43750        0.06250
 BRILLOUIN|    70           0.00391       -0.31250       -0.43750        0.18750
 BRILLOUIN|    71           0.00391       -0.31250       -0.43750        0.31250
 BRILLOUIN|    72           0.00391       -0.31250       -0.43750        0.43750
 BRILLOUIN|    73           0.00391       -0.31250       -0.31250       -0.43750
 BRILLOUIN|    74           0.00391       -0.31250       -0.31250       -0.31250
 BRILLOUIN|    75           0.00391       -0.31250       -0.31250       -0.18750
 BRILLOUIN|    76           0.00391       -0.31250       -0.31250       -0.06250
 BRILLOUIN|    77           0.00391       -0.31250       -0.31250        0.06250
 BRILLOUIN|    78           0.00391       -0.31250       -0.31250        0.18750
 BRILLOUIN|    79           0.00391       -0.31250       -0.31250        0.31250
 BRILLOUIN|    80           0.00391       -0.31250       -0.31250        0.43750
 BRILLOUIN|    81           0.00391       -0.31250       -0.18750       -0.43750
 BRILLOUIN|    82           0.00391       -0.31250       -0.18750       -0.31250
 BRILLOUIN|    83           0.00391       -0.31250       -0.18750       -0.18750
 BRILLOUIN|    84           0.00391       -0.31250       -0.18750       -0.06250
 BRILLOUIN|    85           0.00391       -0.31250       -0.18750        0.06250
 BRILLOUIN|    86           0.00391       -0.31250       -0.18750        0.18750
 BRILLOUIN|    87           0.00391       -0.31250       -0.18750        0.31250
 BRILLOUIN|    88           0.00391       -0.31250       -0.18750        0.43750
 BRILLOUIN|    89           0.00391       -0.31250       -0.06250       -0.43750
 BRILLOUIN|    90           0.00391       -0.31250       -0.06250       -0.31250
 BRILLOUIN|    91           0.00391       -0.31250       -0.06250       -0.18750
 BRILLOUIN|    92           0.00391       -0.31250       -0.06250       -0.06250
 BRILLOUIN|    93           0.00391       -0.31250       -0.06250        0.06250
 BRILLOUIN|    94           0.00391       -0.31250       -0.06250        0.18750
 BRILLOUIN|    95           0.00391       -0.31250       -0.06250        0.31250
 BRILLOUIN|    96           0.00391       -0.31250       -0.06250        0.43750
 BRILLOUIN|    97           0.00391       -0.31250        0.06250       -0.43750
 BRILLOUIN|    98           0.00391       -0.31250        0.06250       -0.31250
 BRILLOUIN|    99           0.00391       -0.31250        0.06250       -0.18750
 BRILLOUIN|   100           0.00391       -0.31250        0.06250       -0.06250
 BRILLOUIN|   101           0.00391       -0.31250        0.06250        0.06250
 BRILLOUIN|   102           0.00391       -0.31250        0.06250        0.18750
 BRILLOUIN|   103           0.00391       -0.31250        0.06250        0.31250
 BRILLOUIN|   104           0.00391       -0.31250        0.06250        0.43750
 BRILLOUIN|   105           0.00391       -0.31250        0.18750       -0.43750
 BRILLOUIN|   106           0.00391       -0.31250        0.18750       -0.31250
 BRILLOUIN|   107           0.00391       -0.31250        0.18750       -0.18750
 BRILLOUIN|   108           0.00391       -0.31250        0.18750       -0.06250
 BRILLOUIN|   109           0.00391       -0.31250        0.18750        0.06250
 BRILLOUIN|   110           0.00391       -0.31250        0.18750        0.18750
 BRILLOUIN|   111           0.00391       -0.31250        0.18750        0.31250
 BRILLOUIN|   112           0.00391       -0.31250        0.18750        0.43750
 BRILLOUIN|   113           0.00391       -0.31250        0.31250       -0.43750
 BRILLOUIN|   114           0.00391       -0.31250        0.31250       -0.31250
 BRILLOUIN|   115           0.00391       -0.31250        0.31250       -0.18750
 BRILLOUIN|   116           0.00391       -0.31250        0.31250       -0.06250
 BRILLOUIN|   117           0.00391       -0.31250        0.31250        0.06250
 BRILLOUIN|   118           0.00391       -0.31250        0.31250        0.18750
 BRILLOUIN|   119           0.00391       -0.31250        0.31250        0.31250
 BRILLOUIN|   120           0.00391       -0.31250        0.31250        0.43750
 BRILLOUIN|   121           0.00391       -0.31250        0.43750       -0.43750
 BRILLOUIN|   122           0.00391       -0.31250        0.43750       -0.31250
 BRILLOUIN|   123           0.00391       -0.31250        0.43750       -0.18750
 BRILLOUIN|   124           0.00391       -0.31250        0.43750       -0.06250
 BRILLOUIN|   125           0.00391       -0.31250        0.43750        0.06250
 BRILLOUIN|   126           0.00391       -0.31250        0.43750        0.18750
 BRILLOUIN|   127           0.00391       -0.31250        0.43750        0.31250
 BRILLOUIN|   128           0.00391       -0.31250        0.43750        0.43750
 BRILLOUIN|   129           0.00391       -0.18750       -0.43750       -0.43750
 BRILLOUIN|   130           0.00391       -0.18750       -0.43750       -0.31250
 BRILLOUIN|   131           0.00391       -0.18750       -0.43750       -0.18750
 BRILLOUIN|   132           0.00391       -0.18750       -0.43750       -0.06250
 BRILLOUIN|   133           0.00391       -0.18750       -0.43750        0.06250
 BRILLOUIN|   134           0.00391       -0.18750       -0.43750        0.18750
 BRILLOUIN|   135           0.00391       -0.18750       -0.43750        0.31250
 BRILLOUIN|   136           0.00391       -0.18750       -0.43750        0.43750
 BRILLOUIN|   137           0.00391       -0.18750       -0.31250       -0.43750
 BRILLOUIN|   138           0.00391       -0.18750       -0.31250       -0.31250
 BRILLOUIN|   139           0.00391       -0.18750       -0.31250       -0.18750
 BRILLOUIN|   140           0.00391       -0.18750       -0.31250       -0.06250
 BRILLOUIN|   141           0.00391       -0.18750       -0.31250        0.06250
 BRILLOUIN|   142           0.00391       -0.18750       -0.31250        0.18750
 BRILLOUIN|   143           0.00391       -0.18750       -0.31250        0.31250
 BRILLOUIN|   144           0.00391       -0.18750       -0.31250        0.43750
 BRILLOUIN|   145           0.00391       -0.18750       -0.18750       -0.43750
 BRILLOUIN|   146           0.00391       -0.18750       -0.18750       -0.31250
 BRILLOUIN|   147           0.00391       -0.18750       -0.18750       -0.18750
 BRILLOUIN|   148           0.00391       -0.18750       -0.18750       -0.06250
 BRILLOUIN|   149           0.00391       -0.18750       -0.18750        0.06250
 BRILLOUIN|   150           0.00391       -0.18750       -0.18750        0.18750
 BRILLOUIN|   151           0.00391       -0.18750       -0.18750        0.31250
 BRILLOUIN|   152           0.00391       -0.18750       -0.18750        0.43750
 BRILLOUIN|   153           0.00391       -0.18750       -0.06250       -0.43750
 BRILLOUIN|   154           0.00391       -0.18750       -0.06250       -0.31250
 BRILLOUIN|   155           0.00391       -0.18750       -0.06250       -0.18750
 BRILLOUIN|   156           0.00391       -0.18750       -0.06250       -0.06250
 BRILLOUIN|   157           0.00391       -0.18750       -0.06250        0.06250
 BRILLOUIN|   158           0.00391       -0.18750       -0.06250        0.18750
 BRILLOUIN|   159           0.00391       -0.18750       -0.06250        0.31250
 BRILLOUIN|   160           0.00391       -0.18750       -0.06250        0.43750
 BRILLOUIN|   161           0.00391       -0.18750        0.06250       -0.43750
 BRILLOUIN|   162           0.00391       -0.18750        0.06250       -0.31250
 BRILLOUIN|   163           0.00391       -0.18750        0.06250       -0.18750
 BRILLOUIN|   164           0.00391       -0.18750        0.06250       -0.06250
 BRILLOUIN|   165           0.00391       -0.18750        0.06250        0.06250
 BRILLOUIN|   166           0.00391       -0.18750        0.06250        0.18750
 BRILLOUIN|   167           0.00391       -0.18750        0.06250        0.31250
 BRILLOUIN|   168           0.00391       -0.18750        0.06250        0.43750
 BRILLOUIN|   169           0.00391       -0.18750        0.18750       -0.43750
 BRILLOUIN|   170           0.00391       -0.18750        0.18750       -0.31250
 BRILLOUIN|   171           0.00391       -0.18750        0.18750       -0.18750
 BRILLOUIN|   172           0.00391       -0.18750        0.18750       -0.06250
 BRILLOUIN|   173           0.00391       -0.18750        0.18750        0.06250
 BRILLOUIN|   174           0.00391       -0.18750        0.18750        0.18750
 BRILLOUIN|   175           0.00391       -0.18750        0.18750        0.31250
 BRILLOUIN|   176           0.00391       -0.18750        0.18750        0.43750
 BRILLOUIN|   177           0.00391       -0.18750        0.31250       -0.43750
 BRILLOUIN|   178           0.00391       -0.18750        0.31250       -0.31250
 BRILLOUIN|   179           0.00391       -0.18750        0.31250       -0.18750
 BRILLOUIN|   180           0.00391       -0.18750        0.31250       -0.06250
 BRILLOUIN|   181           0.00391       -0.18750        0.31250        0.06250
 BRILLOUIN|   182           0.00391       -0.18750        0.31250        0.18750
 BRILLOUIN|   183           0.00391       -0.18750        0.31250        0.31250
 BRILLOUIN|   184           0.00391       -0.18750        0.31250        0.43750
 BRILLOUIN|   185           0.00391       -0.18750        0.43750       -0.43750
 BRILLOUIN|   186           0.00391       -0.18750        0.43750       -0.31250
 BRILLOUIN|   187           0.00391       -0.18750        0.43750       -0.18750
 BRILLOUIN|   188           0.00391       -0.18750        0.43750       -0.06250
 BRILLOUIN|   189           0.00391       -0.18750        0.43750        0.06250
 BRILLOUIN|   190           0.00391       -0.18750        0.43750        0.18750
 BRILLOUIN|   191           0.00391       -0.18750        0.43750        0.31250
 BRILLOUIN|   192           0.00391       -0.18750        0.43750        0.43750
 BRILLOUIN|   193           0.00391       -0.06250       -0.43750       -0.43750
 BRILLOUIN|   194           0.00391       -0.06250       -0.43750       -0.31250
 BRILLOUIN|   195           0.00391       -0.06250       -0.43750       -0.18750
 BRILLOUIN|   196           0.00391       -0.06250       -0.43750       -0.06250
 BRILLOUIN|   197           0.00391       -0.06250       -0.43750        0.06250
 BRILLOUIN|   198           0.00391       -0.06250       -0.43750        0.18750
 BRILLOUIN|   199           0.00391       -0.06250       -0.43750        0.31250
 BRILLOUIN|   200           0.00391       -0.06250       -0.43750        0.43750
 BRILLOUIN|   201           0.00391       -0.06250       -0.31250       -0.43750
 BRILLOUIN|   202           0.00391       -0.06250       -0.31250       -0.31250
 BRILLOUIN|   203           0.00391       -0.06250       -0.31250       -0.18750
 BRILLOUIN|   204           0.00391       -0.06250       -0.31250       -0.06250
 BRILLOUIN|   205           0.00391       -0.06250       -0.31250        0.06250
 BRILLOUIN|   206           0.00391       -0.06250       -0.31250        0.18750
 BRILLOUIN|   207           0.00391       -0.06250       -0.31250        0.31250
 BRILLOUIN|   208           0.00391       -0.06250       -0.31250        0.43750
 BRILLOUIN|   209           0.00391       -0.06250       -0.18750       -0.43750
 BRILLOUIN|   210           0.00391       -0.06250       -0.18750       -0.31250
 BRILLOUIN|   211           0.00391       -0.06250       -0.18750       -0.18750
 BRILLOUIN|   212           0.00391       -0.06250       -0.18750       -0.06250
 BRILLOUIN|   213           0.00391       -0.06250       -0.18750        0.06250
 BRILLOUIN|   214           0.00391       -0.06250       -0.18750        0.18750
 BRILLOUIN|   215           0.00391       -0.06250       -0.18750        0.31250
 BRILLOUIN|   216           0.00391       -0.06250       -0.18750        0.43750
 BRILLOUIN|   217           0.00391       -0.06250       -0.06250       -0.43750
 BRILLOUIN|   218           0.00391       -0.06250       -0.06250       -0.31250
 BRILLOUIN|   219           0.00391       -0.06250       -0.06250       -0.18750
 BRILLOUIN|   220           0.00391       -0.06250       -0.06250       -0.06250
 BRILLOUIN|   221           0.00391       -0.06250       -0.06250        0.06250
 BRILLOUIN|   222           0.00391       -0.06250       -0.06250        0.18750
 BRILLOUIN|   223           0.00391       -0.06250       -0.06250        0.31250
 BRILLOUIN|   224           0.00391       -0.06250       -0.06250        0.43750
 BRILLOUIN|   225           0.00391       -0.06250        0.06250       -0.43750
 BRILLOUIN|   226           0.00391       -0.06250        0.06250       -0.31250
 BRILLOUIN|   227           0.00391       -0.06250        0.06250       -0.18750
 BRILLOUIN|   228           0.00391       -0.06250        0.06250       -0.06250
 BRILLOUIN|   229           0.00391       -0.06250        0.06250        0.06250
 BRILLOUIN|   230           0.00391       -0.06250        0.06250        0.18750
 BRILLOUIN|   231           0.00391       -0.06250        0.06250        0.31250
 BRILLOUIN|   232           0.00391       -0.06250        0.06250        0.43750
 BRILLOUIN|   233           0.00391       -0.06250        0.18750       -0.43750
 BRILLOUIN|   234           0.00391       -0.06250        0.18750       -0.31250
 BRILLOUIN|   235           0.00391       -0.06250        0.18750       -0.18750
 BRILLOUIN|   236           0.00391       -0.06250        0.18750       -0.06250
 BRILLOUIN|   237           0.00391       -0.06250        0.18750        0.06250
 BRILLOUIN|   238           0.00391       -0.06250        0.18750        0.18750
 BRILLOUIN|   239           0.00391       -0.06250        0.18750        0.31250
 BRILLOUIN|   240           0.00391       -0.06250        0.18750        0.43750
 BRILLOUIN|   241           0.00391       -0.06250        0.31250       -0.43750
 BRILLOUIN|   242           0.00391       -0.06250        0.31250       -0.31250
 BRILLOUIN|   243           0.00391       -0.06250        0.31250       -0.18750
 BRILLOUIN|   244           0.00391       -0.06250        0.31250       -0.06250
 BRILLOUIN|   245           0.00391       -0.06250        0.31250        0.06250
 BRILLOUIN|   246           0.00391       -0.06250        0.31250        0.18750
 BRILLOUIN|   247           0.00391       -0.06250        0.31250        0.31250
 BRILLOUIN|   248           0.00391       -0.06250        0.31250        0.43750
 BRILLOUIN|   249           0.00391       -0.06250        0.43750       -0.43750
 BRILLOUIN|   250           0.00391       -0.06250        0.43750       -0.31250
 BRILLOUIN|   251           0.00391       -0.06250        0.43750       -0.18750
 BRILLOUIN|   252           0.00391       -0.06250        0.43750       -0.06250
 BRILLOUIN|   253           0.00391       -0.06250        0.43750        0.06250
 BRILLOUIN|   254           0.00391       -0.06250        0.43750        0.18750
 BRILLOUIN|   255           0.00391       -0.06250        0.43750        0.31250
 BRILLOUIN|   256           0.00391       -0.06250        0.43750        0.43750
 *******************************************************************************

 *******************************************************************************
 *******************************************************************************
 **                                                                           **
 **     #####                         ##              ##                      **
 **    ##   ##            ##          ##              ##                      **
 **   ##     ##                       ##            ######                    **
 **   ##     ##  ##   ##  ##   #####  ##  ##   ####   ##    #####    #####    **
 **   ##     ##  ##   ##  ##  ##      ## ##   ##      ##   ##   ##  ##   ##   **
 **   ##  ## ##  ##   ##  ##  ##      ####     ###    ##   ######   ######    **
 **    ##  ###   ##   ##  ##  ##      ## ##      ##   ##   ##       ##        **
 **     #######   #####   ##   #####  ##  ##  ####    ##    #####   ##        **
 **           ##                                                    ##        **
 **                                                                           **
 **                                                ... make the atoms dance   **
 **                                                                           **
 **            Copyright (C) by CP2K developers group (2000-2025)             **
 **                      J. Chem. Phys. 152, 194103 (2020)                    **
 **                                                                           **
 *******************************************************************************

 DFT| Spin restricted Kohn-Sham (RKS) calculation                            RKS
 DFT| Multiplicity                                                             1
 DFT| Number of spin states                                                    1
 DFT| Charge                                                                   0
 DFT| Self-interaction correction (SIC)                                       NO
 DFT| Cutoffs: density                                              1.000000E-10
 DFT|          gradient                                             1.000000E-10
 DFT|          tau                                                  1.000000E-10
 DFT|          cutoff_smoothing_range                               0.000000E+00
 DFT| XC density smoothing                                                  NONE
 DFT| XC derivatives                                                          PW

 FUNCTIONAL| PBE:
 FUNCTIONAL| J.P.Perdew, K.Burke, M.Ernzerhof, Phys. Rev. Letter, vol. 77, n 18,
 FUNCTIONAL|  pp. 3865-3868, (1996) {spin unpolarized}                          


 QS| Method:                                                                 GPW
 QS| Density plane wave grid type                        NON-SPHERICAL FULLSPACE
 QS| Number of grid levels:                                                    4
 QS| Density cutoff [a.u.]:                                                500.0
 QS| Multi grid cutoff [a.u.]: 1) grid level                               500.0
 QS|                           2) grid level                               166.7
 QS|                           3) grid level                                55.6
 QS|                           4) grid level                                18.5
 QS| Grid level progression factor:                                          3.0
 QS| Relative density cutoff [a.u.]:                                        50.0
 QS| Interaction thresholds: eps_pgf_orb:                                1.0E-16
 QS|                         eps_filter_matrix:                          0.0E+00
 QS|                         eps_core_charge:                            1.0E-18
 QS|                         eps_rho_gspace:                             1.0E-16
 QS|                         eps_rho_rspace:                             1.0E-16
 QS|                         eps_gvg_rspace:                             1.0E-08
 QS|                         eps_ppl:                                    1.0E-02
 QS|                         eps_ppnl:                                   1.0E-10


 ATOMIC KIND INFORMATION

  1. Atomic kind: P                                     Number of atoms:       8

     Orbital Basis Set                                    DZVP-MOLOPT-GGA-GTH-q5

       Number of orbital shell sets:                                           1
       Number of orbital shells:                                               5
       Number of primitive Cartesian functions:                                4
       Number of Cartesian basis functions:                                   14
       Number of spherical basis functions:                                   13
       Norm type:                                                              2

       Normalised Cartesian orbitals:

                        Set   Shell   Orbital            Exponent    Coefficient

                          1       1    2s                1.529974       0.330831
                                                         0.572156      -0.121865
                                                         0.221473      -0.178453
                                                         0.075885      -0.020408

                          1       2    3s                1.529974       0.353664
                                                         0.572156      -0.203423
                                                         0.221473       0.005821
                                                         0.075885       0.111796

                          1       3    3px               1.529974       0.268378
                                                         0.572156      -0.381409
                                                         0.221473      -0.118831
                                                         0.075885      -0.003877
                          1       3    3py               1.529974       0.268378
                                                         0.572156      -0.381409
                                                         0.221473      -0.118831
                                                         0.075885      -0.003877
                          1       3    3pz               1.529974       0.268378
                                                         0.572156      -0.381409
                                                         0.221473      -0.118831
                                                         0.075885      -0.003877

                          1       4    4px               1.529974       0.260904
                                                         0.572156      -0.330883
                                                         0.221473       0.080611
                                                         0.075885       0.048633
                          1       4    4py               1.529974       0.260904
                                                         0.572156      -0.330883
                                                         0.221473       0.080611
                                                         0.075885       0.048633
                          1       4    4pz               1.529974       0.260904
                                                         0.572156      -0.330883
                                                         0.221473       0.080611
                                                         0.075885       0.048633

                          1       5    4dx2              1.529974       0.641565
                                                         0.572156       0.349115
                                                         0.221473       0.047365
                                                         0.075885       0.000033
                          1       5    4dxy              1.529974       1.111223
                                                         0.572156       0.604685
                                                         0.221473       0.082039
                                                         0.075885       0.000058
                          1       5    4dxz              1.529974       1.111223
                                                         0.572156       0.604685
                                                         0.221473       0.082039
                                                         0.075885       0.000058
                          1       5    4dy2              1.529974       0.641565
                                                         0.572156       0.349115
                                                         0.221473       0.047365
                                                         0.075885       0.000033
                          1       5    4dyz              1.529974       1.111223
                                                         0.572156       0.604685
                                                         0.221473       0.082039
                                                         0.075885       0.000058
                          1       5    4dz2              1.529974       0.641565
                                                         0.572156       0.349115
                                                         0.221473       0.047365
                                                         0.075885       0.000033

       Atomic covalent radius [Angstrom]:                                  1.060

       Atomic van der Waals radius [Angstrom]:                             1.800

     GTH Potential information for                                    GTH-PBE-q5

       Description:                       Goedecker-Teter-Hutter pseudopotential
                                           Goedecker et al., PRB 54, 1703 (1996)
                                          Hartwigsen et al., PRB 58, 3641 (1998)
                                                      Krack, TCA 114, 145 (2005)

       Gaussian exponent of the core charge distribution:               2.704164
       Electronic configuration (s p d ...):                               2   3

       Parameters of the local part of the GTH pseudopotential:

                          rloc        C1          C2          C3          C4
                        0.430000   -5.875943

       Parameters of the non-local part of the GTH (SOC) pseudopotential:

                   l      r(l)      h(i,j,l)
                                    k(i,j,l)
                   0    0.396377   11.008862   -3.470356
                                   -3.470356    4.480210
                   1    0.448298    3.056064    0.000000
                                    0.000000    0.000000
                                    0.026069   -0.021185
                                   -0.021185    0.025066


 MOLECULE KIND INFORMATION


 All atoms are their own molecule, skipping detailed information


 TOTAL NUMBERS AND MAXIMUM NUMBERS

  Total number of            - Atomic kinds:                                   1
                             - Atoms:                                          8
                             - Shell sets:                                     8
                             - Shells:                                        40
                             - Primitive Cartesian functions:                 32
                             - Cartesian basis functions:                    112
                             - Spherical basis functions:                    104

  Maximum angular momentum of- Orbital basis functions:                        2
                             - Local part of the GTH pseudopotential:          0
                             - Non-local part of the GTH pseudopotential:      3


 MODULE QUICKSTEP: ATOMIC COORDINATES IN ANGSTROM

   Atom Kind Element         X             Y             Z       Z(eff)     Mass
      1    1 P    15      0.000000      1.058926      0.398743   5.0000  30.9738
      2    1 P    15      0.000000     10.258014      4.174527   5.0000  30.9738
      3    1 P    15      0.000000      4.599544      2.685378   5.0000  30.9738
      4    1 P    15      0.000000      6.717396      1.887892   5.0000  30.9738
      5    1 P    15      1.652330      6.717396      0.398743   5.0000  30.9738
      6    1 P    15      1.652330      4.599544      4.174527   5.0000  30.9738
      7    1 P    15      1.652330     10.258014      2.685378   5.0000  30.9738
      8    1 P    15      1.652330      1.058926      1.887892   5.0000  30.9738



 SCF PARAMETERS         Density guess:                                    ATOMIC
                        --------------------------------------------------------
                        max_scf:                                             500
                        max_scf_history:                                       0
                        max_diis:                                              4
                        --------------------------------------------------------
                        eps_scf:                                        1.00E-09
                        eps_scf_history:                                0.00E+00
                        eps_diis:                                       1.00E-01
                        eps_eigval:                                     1.00E-05
                        --------------------------------------------------------
                        level_shift [a.u.]:                             0.000000
                        added MOs                                        84    0
                        --------------------------------------------------------
                        Mixing method:                            BROYDEN_MIXING
                                                charge density mixing in g-space
                        --------------------------------------------------------
                        No outer SCF

 PW_GRID| Information for grid number                                          1
 PW_GRID| Grid distributed over                                     8 processors
 PW_GRID| Real space group dimensions                                     8    1
 PW_GRID| the grid is blocked:                                                NO
 PW_GRID| Cutoff [a.u.]                                                    500.0
 PW_GRID| spherical cutoff:                                                   NO
 PW_GRID|   Bounds   1            -32      31                Points:          64
 PW_GRID|   Bounds   2           -108     107                Points:         216
 PW_GRID|   Bounds   3            -45      44                Points:          90
 PW_GRID| Volume element (a.u.^3)  0.9277E-03     Volume (a.u.^3)      1154.1952
 PW_GRID| Grid span                                                    FULLSPACE
 PW_GRID|   Distribution                         Average         Max         Min
 PW_GRID|   G-Vectors                           155520.0      155520      155520
 PW_GRID|   G-Rays                                2430.0        2430        2430
 PW_GRID|   Real Space Points                   155520.0      155520      155520

 PW_GRID| Information for grid number                                          2
 PW_GRID| Number of the reference grid                                         1
 PW_GRID| Grid distributed over                                     8 processors
 PW_GRID| Real space group dimensions                                     8    1
 PW_GRID| the grid is blocked:                                                NO
 PW_GRID| Cutoff [a.u.]                                                    166.7
 PW_GRID| spherical cutoff:                                                   NO
 PW_GRID|   Bounds   1            -20      19                Points:          40
 PW_GRID|   Bounds   2            -62      62                Points:         125
 PW_GRID|   Bounds   3            -27      26                Points:          54
 PW_GRID| Volume element (a.u.^3)  0.4275E-02     Volume (a.u.^3)      1154.1952
 PW_GRID| Grid span                                                    FULLSPACE
 PW_GRID|   Distribution                         Average         Max         Min
 PW_GRID|   G-Vectors                            33750.0       33880       33600
 PW_GRID|   G-Rays                                 843.8         847         840
 PW_GRID|   Real Space Points                    33750.0       33750       33750

 PW_GRID| Information for grid number                                          3
 PW_GRID| Number of the reference grid                                         1
 PW_GRID| Grid distributed over                                     8 processors
 PW_GRID| Real space group dimensions                                     8    1
 PW_GRID| the grid is blocked:                                                NO
 PW_GRID| Cutoff [a.u.]                                                     55.6
 PW_GRID| spherical cutoff:                                                   NO
 PW_GRID|   Bounds   1            -12      11                Points:          24
 PW_GRID|   Bounds   2            -36      35                Points:          72
 PW_GRID|   Bounds   3            -15      14                Points:          30
 PW_GRID| Volume element (a.u.^3)  0.2226E-01     Volume (a.u.^3)      1154.1952
 PW_GRID| Grid span                                                    FULLSPACE
 PW_GRID|   Distribution                         Average         Max         Min
 PW_GRID|   G-Vectors                             6480.0        6528        6408
 PW_GRID|   G-Rays                                 270.0         272         267
 PW_GRID|   Real Space Points                     6480.0        6480        6480

 PW_GRID| Information for grid number                                          4
 PW_GRID| Number of the reference grid                                         1
 PW_GRID| Grid distributed over                                     8 processors
 PW_GRID| Real space group dimensions                                     8    1
 PW_GRID| the grid is blocked:                                                NO
 PW_GRID| Cutoff [a.u.]                                                     18.5
 PW_GRID| spherical cutoff:                                                   NO
 PW_GRID|   Bounds   1             -7       7                Points:          15
 PW_GRID|   Bounds   2            -22      22                Points:          45
 PW_GRID|   Bounds   3             -9       8                Points:          18
 PW_GRID| Volume element (a.u.^3)  0.9500E-01     Volume (a.u.^3)      1154.1952
 PW_GRID| Grid span                                                    FULLSPACE
 PW_GRID|   Distribution                         Average         Max         Min
 PW_GRID|   G-Vectors                             1518.8        1545        1500
 PW_GRID|   G-Rays                                 101.2         103         100
 PW_GRID|   Real Space Points                     1518.8        1620         810

 POISSON| Solver                                                        PERIODIC
 POISSON| Periodicity                                                        XYZ

 RS_GRID| Information for grid number                                          1
 RS_GRID|   Bounds   1            -32      31                Points:          64
 RS_GRID|   Bounds   2           -108     107                Points:         216
 RS_GRID|   Bounds   3            -45      44                Points:          90
 RS_GRID| Real space fully replicated
 RS_GRID| Group size                                                           1

 RS_GRID| Information for grid number                                          2
 RS_GRID|   Bounds   1            -20      19                Points:          40
 RS_GRID|   Bounds   2            -62      62                Points:         125
 RS_GRID|   Bounds   3            -27      26                Points:          54
 RS_GRID| Real space fully replicated
 RS_GRID| Group size                                                           1

 RS_GRID| Information for grid number                                          3
 RS_GRID|   Bounds   1            -12      11                Points:          24
 RS_GRID|   Bounds   2            -36      35                Points:          72
 RS_GRID|   Bounds   3            -15      14                Points:          30
 RS_GRID| Real space fully replicated
 RS_GRID| Group size                                                           1

 RS_GRID| Information for grid number                                          4
 RS_GRID|   Bounds   1             -7       7                Points:          15
 RS_GRID|   Bounds   2            -22      22                Points:          45
 RS_GRID|   Bounds   3             -9       8                Points:          18
 RS_GRID| Real space fully replicated
 RS_GRID| Group size                                                           1

 Number of electrons:                                                         40
 Number of occupied orbitals:                                                 20
 Number of molecular orbitals:                                               104

 Number of orbital functions:                                                104
 Number of independent orbital functions:                                    104

 Extrapolation method: initial_guess

 Atomic guess: The first density matrix is obtained in terms of atomic orbitals
               and electronic configurations assigned to each atomic kind

 Guess for atomic kind: P

 Electronic structure
    Total number of core electrons                                         10.00
    Total number of valence electrons                                       5.00
    Total number of electrons                                              15.00
    Multiplicity                                                   not specified
    S   [  2.00  2.00] 2.00
    P   [  6.00] 3.00


 *******************************************************************************
                  Iteration          Convergence                     Energy [au]
 *******************************************************************************
                          1        0.548986E-01                  -6.294354357999
                          2        0.254448E-01                  -6.295484165988
                          3        0.230145E-04                  -6.295805065948
                          4        0.146324E-06                  -6.295805066320

 Energy components [Hartree]           Total Energy ::           -6.295805066320
                                        Band Energy ::           -1.511982773114
                                     Kinetic Energy ::            2.374081083336
                                   Potential Energy ::           -8.669886149656
                                      Virial (-V/T) ::            3.651891340406
                                        Core Energy ::          -10.066592906222
                                          XC Energy ::           -1.456742300807
                                     Coulomb Energy ::            5.227530140708
                       Total Pseudopotential Energy ::          -12.501604682519
                       Local Pseudopotential Energy ::          -13.853444767943
                    Nonlocal Pseudopotential Energy ::            1.351840085423
                                        Confinement ::            0.609306929617

 Orbital energies  State     L     Occupation   Energy[a.u.]          Energy[eV]

                       1     0          2.000      -0.489476          -13.319322

                       1     1          3.000      -0.177677           -4.834833


 Total Electron Density at R=0:                                         0.000145
 Re-scaling the density matrix to get the right number of electrons
                  # Electrons              Trace(P)               Scaling factor
                           40                40.000                        1.000


 SCF WAVEFUNCTION OPTIMIZATION

  Step     Update method      Time    Convergence         Total energy    Change
  ------------------------------------------------------------------------------
     1 NoMix/Diag. 0.50E-01    2.9     0.45527958       -53.2459180455 -5.32E+01
     2 Broy./Diag. 0.50E-01    2.9     0.00037118       -52.2537181644  9.92E-01
     3 Broy./Diag. 0.50E-01    2.9     0.01077244       -52.2887717553 -3.51E-02
     4 Broy./Diag. 0.50E-01    2.9     0.00022820       -52.4373686153 -1.49E-01
     5 Broy./Diag. 0.50E-01    2.9     0.00557624       -52.6456420103 -2.08E-01
     6 Broy./Diag. 0.50E-01    2.9     0.00010050       -52.6851357759 -3.95E-02
     7 Broy./Diag. 0.50E-01    2.9     0.00097175       -52.7248180215 -3.97E-02
     8 Broy./Diag. 0.50E-01    2.9     0.00007809       -52.7238848029  9.33E-04
     9 Broy./Diag. 0.50E-01    2.9     0.00120132       -52.7128974289  1.10E-02
    10 Broy./Diag. 0.50E-01    2.9     0.00032405       -52.7042802189  8.62E-03
    11 Broy./Diag. 0.50E-01    2.9     0.00005034       -52.7015359226  2.74E-03
    12 Broy./Diag. 0.50E-01    2.9     0.00024362       -52.6948409985  6.69E-03
    13 Broy./Diag. 0.50E-01    2.9     0.00000386       -52.6931323126  1.71E-03
    14 Broy./Diag. 0.50E-01    2.9     0.00004451       -52.6923094440  8.23E-04
    15 Broy./Diag. 0.50E-01    2.9     0.00000061       -52.6920034110  3.06E-04
    16 Broy./Diag. 0.50E-01    2.9     0.00000369       -52.6921689025 -1.65E-04
    17 Broy./Diag. 0.50E-01    2.9     0.00000077       -52.6921699470 -1.04E-06
    18 Broy./Diag. 0.50E-01    2.9     0.00000122       -52.6921564766  1.35E-05
    19 Broy./Diag. 0.50E-01    2.9     0.00000008       -52.6921626720 -6.20E-06
    20 Broy./Diag. 0.50E-01    2.9     0.00000038       -52.6921782764 -1.56E-05
    21 Broy./Diag. 0.50E-01    2.9     0.00000022       -52.6921885078 -1.02E-05
    22 Broy./Diag. 0.50E-01    2.9     0.00000050       -52.6922087228 -2.02E-05
    23 Broy./Diag. 0.50E-01    2.9     0.00000018       -52.6922196570 -1.09E-05
    24 Broy./Diag. 0.50E-01    2.9     0.00000010       -52.6922235622 -3.91E-06
    25 Broy./Diag. 0.50E-01    2.9     0.00000121       -52.6922003943  2.32E-05
    26 Broy./Diag. 0.50E-01    2.9     0.00000017       -52.6921902244  1.02E-05
    27 Broy./Diag. 0.50E-01    2.9     0.00000030       -52.6921825100  7.71E-06
    28 Broy./Diag. 0.50E-01    2.9     0.00000009       -52.6921797616  2.75E-06
    29 Broy./Diag. 0.50E-01    2.9     0.00000013       -52.6921807801 -1.02E-06
    30 Broy./Diag. 0.50E-01    2.9     0.00000014       -52.6921798131  9.67E-07
    31 Broy./Diag. 0.50E-01    2.9     0.00000014       -52.6921784709  1.34E-06
    32 Broy./Diag. 0.50E-01    2.9     0.00000005       -52.6921772747  1.20E-06
    33 Broy./Diag. 0.50E-01    2.9     0.00000005       -52.6921764270  8.48E-07
    34 Broy./Diag. 0.50E-01    2.9     0.00000002       -52.6921770645 -6.38E-07
    35 Broy./Diag. 0.50E-01    2.9     0.00000001       -52.6921779568 -8.92E-07
    36 Broy./Diag. 0.50E-01    2.9     0.00000005       -52.6921797011 -1.74E-06
    37 Broy./Diag. 0.50E-01    2.9     0.00000002       -52.6921808923 -1.19E-06
    38 Broy./Diag. 0.50E-01    2.9     0.00000001       -52.6921815720 -6.80E-07
    39 Broy./Diag. 0.50E-01    2.9     3.8095E-09       -52.6921816740 -1.02E-07
    40 Broy./Diag. 0.50E-01    2.9     4.1942E-09       -52.6921813391  3.35E-07
    41 Broy./Diag. 0.50E-01    2.9     3.5438E-09       -52.6921812679  7.12E-08
    42 Broy./Diag. 0.50E-01    2.9     5.1980E-09       -52.6921813233 -5.54E-08
    43 Broy./Diag. 0.50E-01    2.9     6.5684E-09       -52.6921812776  4.56E-08
    44 Broy./Diag. 0.50E-01    2.9     0.00000003       -52.6921812548  2.29E-08
    45 Broy./Diag. 0.50E-01    2.9     1.5270E-09       -52.6921811198  1.35E-07
    46 Broy./Diag. 0.50E-01    2.9     0.00000001       -52.6921809380  1.82E-07
    47 Broy./Diag. 0.50E-01    2.9     3.7736E-09       -52.6921808199  1.18E-07
    48 Broy./Diag. 0.50E-01    2.9     6.1228E-09       -52.6921807092  1.11E-07
    49 Broy./Diag. 0.50E-01    2.9     9.5449E-10       -52.6921807451 -3.59E-08

  *** SCF run converged in    49 steps ***


  Electronic density on regular grids:        -40.0000000000       -0.0000000000
  Core density on regular grids:               40.0000000000        0.0000000000
  Total charge density on r-space grids:       -0.0000000000
  Total charge density g-space grids:          -0.0000000000

  Overlap energy of the core charge distribution:               0.00000000027443
  Self energy of the core charge distribution:               -131.20687989482707
  Core Hamiltonian energy:                                     28.55411482984942
  Hartree energy:                                              63.38939375741847
  Exchange-correlation energy:                                -13.42880943779906

  Total energy:                                               -52.69218074508379

 !-----------------------------------------------------------------------------!
                     Mulliken Population Analysis

 #  Atom  Element  Kind  Atomic population                           Net charge
       1     P        1          5.000000                              0.000000
       2     P        1          5.000000                              0.000000
       3     P        1          5.000000                              0.000000
       4     P        1          5.000000                              0.000000
       5     P        1          5.000000                             -0.000000
       6     P        1          5.000000                             -0.000000
       7     P        1          5.000000                              0.000000
       8     P        1          5.000000                             -0.000000
 # Total charge                             40.000000                  0.000000

 !-----------------------------------------------------------------------------!

 !-----------------------------------------------------------------------------!
                           Hirshfeld Charges

  #Atom  Element  Kind  Ref Charge     Population                    Net charge
      1       P      1       5.000          5.000                         0.000
      2       P      1       5.000          5.000                         0.000
      3       P      1       5.000          5.000                        -0.000
      4       P      1       5.000          5.000                        -0.000
      5       P      1       5.000          5.000                        -0.000
      6       P      1       5.000          5.000                        -0.000
      7       P      1       5.000          5.000                         0.000
      8       P      1       5.000          5.000                         0.000

  Total Charge                                                           -0.000
 !-----------------------------------------------------------------------------!

 KPOINTS| Band Structure Calculation
 KPOINTS| Number of k-point sets                                               1
 KPOINTS| Number of added MOs/bands                                           -1
 KPOINTS| Number of k-points in set    1                                     148
 KPOINTS| In units of b-vector [2pi/Bohr]
 KPOINTS| Special point     1 not specifi     0.000000     0.000000     0.000000
 KPOINTS| Special point     2 not specifi    -0.500000     0.500000     0.000000
 KPOINTS| Special point     3 not specifi    -0.271317     0.728683     0.000000
 KPOINTS| Special point     4 not specifi     0.000000     0.000000     0.000000
 KPOINTS| Time for k-point line                                            1.295

 ENERGY| Total FORCE_EVAL ( QS ) energy [hartree]            -52.692180745083789

 -------------------------------------------------------------------------------
 -                                                                             -
 -                                DBCSR STATISTICS                             -
 -                                                                             -
 -------------------------------------------------------------------------------
 COUNTER                                    TOTAL       BLAS       SMM       ACC
 flops inhomo. stacks                           0       0.0%      0.0%      0.0%
 flops total                         0.000000E+00       0.0%      0.0%      0.0%
 flops max/rank                      0.000000E+00       0.0%      0.0%      0.0%
 matmuls inhomo. stacks                         0       0.0%      0.0%      0.0%
 matmuls total                                  0       0.0%      0.0%      0.0%
 number of processed stacks                     0       0.0%      0.0%      0.0%
 average stack size                                     0.0       0.0       0.0
 marketing flops                     0.000000E+00
 -------------------------------------------------------------------------------
 -                                                                             -
 -                      DBCSR MESSAGE PASSING PERFORMANCE                      -
 -                                                                             -
 -------------------------------------------------------------------------------
 ROUTINE             CALLS      AVE VOLUME [Bytes]
 MP_Bcast                1                     12.
 MP_Allreduce           19                     21.
 MP_Alltoall       1058652                   5701.
 -------------------------------------------------------------------------------

 -------------------------------------------------------------------------------
 -                                                                             -
 -                                DBM STATISTICS                               -
 -                                                                             -
 -------------------------------------------------------------------------------
    M  x    N  x    K                                          COUNT     PERCENT
 -------------------------------------------------------------------------------

 -------------------------------------------------------------------------------
 -                                                                             -
 -                                GRID STATISTICS                              -
 -                                                                             -
 -------------------------------------------------------------------------------
 LP    KERNEL             BACKEND                              COUNT     PERCENT
 4     collocate ortho    CPU                                1228200      50.50%
 4     integrate ortho    CPU                                1203636      49.49%
 0     collocate general  CPU                                     16       0.00%
 0     integrate general  CPU                                      8       0.00%
 -------------------------------------------------------------------------------

 MEMORY| Estimated peak process memory [MiB]                                 487

 -------------------------------------------------------------------------------
 ----                             MULTIGRID INFO                            ----
 -------------------------------------------------------------------------------
 count for grid        1:              0          cutoff [a.u.]          500.00
 count for grid        2:          15016          cutoff [a.u.]          166.67
 count for grid        3:          16964          cutoff [a.u.]           55.56
 count for grid        4:          25400          cutoff [a.u.]           18.52
 total gridlevel count  :          57380

 -------------------------------------------------------------------------------
 -                                                                             -
 -                         MESSAGE PASSING PERFORMANCE                         -
 -                                                                             -
 -------------------------------------------------------------------------------

 ROUTINE             CALLS      AVE VOLUME [Bytes]
 MP_Group                6
 MP_Bcast           456256                   9517.
 MP_Allreduce        82905                    141.
 MP_Sync                 4
 MP_Alltoall           887                6919782.
 MP_SendRecv          1414                 403150.
 MP_ISendRecv         1379                 399052.
 MP_Wait            314359
 MP_comm_split           4
 MP_ISend           332684                   2478.
 MP_IRecv           531584                   1553.
 -------------------------------------------------------------------------------


 -------------------------------------------------------------------------------
 -                                                                             -
 -                           R E F E R E N C E S                               -
 -                                                                             -
 -------------------------------------------------------------------------------
 
 CP2K version 2025.1 (Development Version), the CP2K developers group (2025).
 CP2K is freely available from https://www.cp2k.org/ .
 
 T. D. Kuehne, M. Iannuzzi, M. Del Ben, V. V. Rybkin, P. Seewald, F. Stein, T. 
 Laino, R. Z. Khaliullin, O. Schuett, F. Schiffmann, D. Golze, J. Wilhelm, S. 
 Chulkov, M. H. Bani-Hashemian, V. Weber, U. Borstnik, M. Taillefumier, A. S. 
 Jakobovits, A. Lazzaro, H. Pabst, T. Mueller, R. Schade, M. Guidon, S. 
 Andermatt, N. Holmberg, G. K. Schenter, A. Hehn, A. Bussy, F. Belleflamme, G. 
 Tabacchi, A. Gloess, M. Lass, I. Bethune, C. J. Mundy, C. Plessl, M. Watkins, 
 J. VandeVondele, M. Krack, J. Hutter.
 J. Chem. Phys. 152, 194103 (2020).
 CP2K: An electronic structure and molecular dynamics software package - 
 Quickstep: Efficient and accurate electronic structure calculations.
 https://doi.org/10.1063/5.0007045

 O. Schuett, P. Messmer, J. Hutter, J. VandeVondele.
 Electronic Structure Calculations on Graphics Processing Units, 173-190 (2016).
 GPU-Accelerated Sparse Matrix-Matrix Multiplication for Linear Scaling Density 
 Functional Theory.
 https://doi.org/10.1002/9781118670712.ch8

 J. Hutter, M. Iannuzzi, F. Schiffmann, J. VandeVondele.
 WIREs Comput Mol Sci. 4, 15-25 (2014).
 CP2K: atomistic simulations of condensed matter systems.
 https://doi.org/10.1002/wcms.1159

 U. Borstnik, J. VandeVondele, V. Weber, J. Hutter.
 Parallel Comput. 40, 47-58 (2014).
 Sparse matrix multiplication: The distributed block-compressed sparse row 
 library.
 https://doi.org/10.1016/j.parco.2014.03.012

 J. VandeVondele, J. Hutter.
 J. Chem. Phys. 127, 114105 (2007).
 Gaussian basis sets for accurate calculations on molecular systems in gas and 
 condensed phases.
 https://doi.org/10.1063/1.2770708

 J. VandeVondele, M. Krack, F. Mohamed, M. Parrinello, T. Chassaing, J. Hutter.
 Comput. Phys. Commun. 167, 103-128 (2005).
 QUICKSTEP: Fast and accurate density functional calculations using a mixed 
 Gaussian and plane waves approach.
 https://doi.org/10.1016/j.cpc.2004.12.014

 M. Krack.
 Theor. Chem. Acc. 114, 145-152 (2005).
 Pseudopotentials for H to Kr optimized for gradient-corrected 
 exchange-correlation functionals.
 https://doi.org/10.1007/s00214-005-0655-y

 M. Frigo, S. G. Johnson.
 Proc. IEEE 93, 216-231 (2005).
 The design and implementation of FFTW3.
 https://doi.org/10.1109/JPROC.2004.840301

 C. Hartwigsen, S. Goedecker, J. Hutter.
 Phys. Rev. B 58, 3641-3662 (1998).
 Relativistic separable dual-space Gaussian pseudopotentials from H to Rn.
 https://doi.org/10.1103/PhysRevB.58.3641

 G. Lippert, J. Hutter, M. Parrinello.
 Mol. Phys. 92, 477-487 (1997).
 A hybrid Gaussian and plane wave density functional scheme.
 https://doi.org/10.1080/002689797170220

 S. Goedecker, M. Teter, J. Hutter.
 Phys. Rev. B 54, 1703-1710 (1996).
 Separable dual-space Gaussian pseudopotentials.
 https://doi.org/10.1103/PhysRevB.54.1703

 J. P. Perdew, K. Burke, M. Ernzerhof.
 Phys. Rev. Lett. 77, 3865-3868 (1996).
 Generalized gradient approximation made simple.
 https://doi.org/10.1103/PhysRevLett.77.3865


 -------------------------------------------------------------------------------
 -                                                                             -
 -                                T I M I N G                                  -
 -                                                                             -
 -------------------------------------------------------------------------------
 SUBROUTINE                       CALLS  ASD         SELF TIME        TOTAL TIME
                                MAXIMUM       AVERAGE  MAXIMUM  AVERAGE  MAXIMUM
 CP2K                                 1  1.0    0.011    0.015  146.427  146.427
 qs_energies                          1  2.0    0.008    0.042  145.070  145.090
 scf_env_do_scf                       1  3.0    0.000    0.000  143.106  143.106
 scf_env_do_scf_inner_loop           49  4.0    0.027    0.029  143.106  143.106
 do_general_diag_kp                  50  5.9    0.314    0.332  129.599  130.863
 qs_scf_new_mos_kp                   49  5.0    0.000    0.001  128.365  129.638
 rskp_transform                   25384  7.0   41.677   46.831   41.677   46.831
 kpoint_density_transform            49  7.0    0.120    0.128   36.089   36.111
 mp_alltoall_i22                 180722  8.8   12.012   33.671   12.012   33.671
 dbcsr_complete_redistribute      77521  8.3    3.226    3.381   26.763   33.047
 dbcsr_desymmetrize_deep         103201  7.5    1.878    1.943   17.555   32.575
 copy_dbcsr_to_fm                 52433  6.9    0.576    0.597   26.505   27.026
 transform_dmat                   12544  8.0   20.023   22.684   20.023   22.684
 copy_fm_to_dbcsr                 25088  8.0    0.162    0.168   10.951   17.228
 cp_fm_start_copy_general         75856  7.3    1.713    2.231    9.820    9.903
 qs_ks_update_qs_env                 49  5.0    0.000    0.000    7.186    7.738
 dbcsr_finalize                  190194  8.7    0.923    1.009    6.526    6.993
 rebuild_ks_matrix                   49  6.0    0.000    0.000    6.355    6.908
 qs_ks_build_kohn_sham_matrix        49  7.0    0.049    0.050    6.355    6.908
 cp_cfm_geeig                      1605  6.9    0.014    0.016    6.428    6.471
 mp_alltoall_d11v                542166  9.4    5.716    6.014    5.716    6.014
 mp_allgather_i                  151712  8.3    5.216    5.382    5.216    5.382
 cp_cfm_heevd                      1605  7.9    0.003    0.003    4.903    4.928
 cp_cfm_heevd_base                 1605  8.9    4.901    4.926    4.901    4.926
 sum_up_and_integrate                49  8.0    0.001    0.001    4.351    4.920
 integrate_v_rspace                  49  9.0    0.067    0.099    4.348    4.917
 mp_cart_sub                     104868  8.9    4.375    4.402    4.375    4.402
 qs_rho_update_rho_low               50  5.0    0.000    0.000    4.003    4.016
 calculate_rho_elec                  50  6.0    0.063    0.067    4.003    4.016
 grid_integrate_task_list            49 10.0    3.492    4.014    3.492    4.014
 dbcsr_merge_all                  77521 10.3    2.034    2.387    3.563    3.940
 hybrid_alltoall_any             103201  8.5    0.436    0.453    3.545    3.722
 mp_alltoall_i11v                335764  9.0    3.445    3.578    3.445    3.578
 grid_collocate_task_list            50  7.0    2.654    2.986    2.654    2.986
 mp_cart_create                   52440  8.9    2.597    2.647    2.597    2.647
 mp_bcast_iv                     303578  8.3    1.832    2.064    1.832    2.064
 density_rs2pw                       50  7.0    0.002    0.002    1.281    2.042
 fft_wrap_pw1pw2                    887 10.0    0.009    0.010    2.015    2.033
 fft_wrap_pw1pw2_500                590 11.3    0.150    0.152    1.870    1.887
 dbcsr_work_create               180722  8.8    1.132    1.160    1.760    1.807
 dbcsr_create_new                316865  8.2    1.407    1.492    1.694    1.795
 transfer_rs2pw                     202  8.0    0.002    0.003    0.942    1.761
 transfer_rs2pw_500                  52  8.9    0.247    0.260    0.808    1.628
 fft3d_ps                           887 12.0    0.718    0.732    1.591    1.616
 write_kpoints_restart               49  5.0    0.006    0.010    1.554    1.555
 dbcsr_copy                       80033  7.3    0.361    0.387    1.362    1.535
 mp_sendrecv_dv                    1414 10.0    0.640    1.453    0.640    1.453
 qs_vxc_create                       49  8.0    0.001    0.001    1.447    1.449
 xc_vxc_pw_create                    49  9.0    0.060    0.060    1.446    1.448
 dbcsr_work_destroy_all          180722  9.8    0.862    0.875    1.363    1.381
 gspace_mixing                       48  5.0    0.053    0.053    1.362    1.362
 dbcsr_iterator_start            572394  9.0    1.125    1.146    1.314    1.345
 copy_fm_to_dbcsr_bc              25088  9.0    0.361    0.387    1.221    1.288
 copy_dbcsr_to_fm_bc              52433  7.9    0.551    0.582    1.187    1.229
 cp_fm_finish_copy_general        31508  7.8    1.103    1.120    1.168    1.181
 dbcsr_data_new                 1941222  9.7    1.119    1.165    1.119    1.165
 broyden_mixing                      48  6.0    1.106    1.116    1.132    1.137
 dbcsr_data_release             2720018 10.2    1.072    1.089    1.072    1.089
 tree_to_linear_d                 77521 11.3    1.044    1.084    1.044    1.084
 dbcsr_copy_into_existing         25643  9.9    0.757    0.900    0.908    1.052
 create_qs_kind_set                   1  2.0    0.000    0.000    1.037    1.037
 read_qs_kind                         1  3.0    0.615    0.624    1.037    1.037
 xc_pw_derive                       294 11.0    0.001    0.001    0.923    0.931
 cp_cfm_triangular_multiply        4815  7.9    0.911    0.924    0.911    0.924
 dbcsr_destroy                   262475  8.3    0.450    0.466    0.829    0.861
 dbcsr_iterator_stop             572394  9.0    0.705    0.712    0.831    0.837
 evaluate_core_matrix_traces         49  6.0    0.000    0.000    0.830    0.830
 calculate_ptrace_kp                 98  7.0    0.041    0.042    0.830    0.830
 dbcsr_dot                        54391  8.0    0.323    0.345    0.797    0.819
 potential_pw2rs                     49 10.0    0.005    0.005    0.789    0.804
 mp_alltoall_z22v                   887 14.0    0.757    0.792    0.757    0.792
 xc_rho_set_and_dset_create          49 10.0    0.031    0.033    0.786    0.790
 cp_fm_write_unformatted           1665  6.0    0.377    0.663    0.449    0.719
 mp_waitall_1                    314359  8.3    0.413    0.684    0.413    0.684
 kpoint_density_matrices             49  7.0    0.032    0.033    0.625    0.635
 quick_finalize                  103201  9.5    0.342    0.353    0.600    0.623
 mp_bcast_im                     151712  8.3    0.553    0.621    0.553    0.621
 parser_read_line                134321  4.0    0.044    0.047    0.594    0.613
 xc_pw_divergence                    49 10.0    0.001    0.001    0.593    0.598
 parallel_gemm_fm                  6272  8.0    0.006    0.006    0.570    0.579
 parallel_gemm_fm_gemm             6272  9.0    0.006    0.006    0.565    0.573
 parser_read_line_low               153  5.2    0.049    0.216    0.549    0.570
 cp_fm_gemm                        6272 10.0    0.559    0.567    0.559    0.567
 transfer_pw2rs                     197 11.0    0.002    0.002    0.558    0.559
 broadcast_input_information        153  6.2    0.101    0.114    0.500    0.546
 x_to_yz                            490 13.2    0.065    0.066    0.499    0.515
 self_consistency_check              49  5.0    0.039    0.041    0.481    0.506
 mp_comm_free                    157344  8.9    0.408    0.447    0.408    0.447
 mp_sum_d                         55205  8.9    0.349    0.430    0.349    0.430
 transfer_pw2rs_500                  50 11.9    0.238    0.249    0.415    0.424
 cp_sm_mix                        27195  6.0    0.136    0.145    0.387    0.421
 yz_to_x                            397 12.8    0.044    0.049    0.367    0.386
 qs_energies_init_hamiltonians        1  3.0    0.000    0.000    0.371    0.371
 mp_send_dv                        1665  7.0    0.065    0.337    0.065    0.337
 mp_bcast_i_src                     612  7.2    0.279    0.326    0.279    0.326
 dbcsr_sort_indices              209991 10.9    0.300    0.322    0.300    0.322
 mp_isend_dv                      76448  8.3    0.306    0.321    0.306    0.321
 dbcsr_set                       186206  7.9    0.183    0.190    0.301    0.314
 cp_dbcsr_alloc_block_from_nbl     4181  5.2    0.250    0.276    0.283    0.312
 cp_cfm_triangular_invert          1605  7.9    0.287    0.292    0.287    0.292
 build_core_hamiltonian_matrix        1  4.0    0.002    0.002    0.243    0.285
 cp_cfm_cholesky_decompose         1605  7.9    0.273    0.280    0.273    0.280
 xc_functional_eval                  49 11.0    0.000    0.001    0.262    0.265
 pbe_lda_eval                        49 12.0    0.262    0.264    0.262    0.264
 mp_max_d                         27197  7.0    0.188    0.243    0.188    0.243
 kpoint_set_mo_occupation            49  7.0    0.060    0.060    0.148    0.220
 dbcsr_reserve_all_blocks         25088 10.0    0.044    0.047    0.209    0.217
 dbcsr_reserve_blocks             29269 10.3    0.165    0.172    0.196    0.204
 dbcsr_iterator_seek             572394 10.0    0.189    0.199    0.189    0.199
 dbcsr_make_index_exist          316865  9.2    0.180    0.194    0.180    0.194
 topology_control                     1  2.0    0.000    0.000    0.192    0.192
 merge_index                      77521 11.3    0.155    0.187    0.155    0.187
 read_cell_cif                        2  4.5    0.017    0.122    0.168    0.169
 init_scf_run                         1  3.0    0.000    0.000    0.141    0.162
 scf_env_initial_rho_setup            1  4.0    0.000    0.000    0.141    0.162
 mp_sum_dm3                          49  8.0    0.089    0.160    0.089    0.160
 qs_env_update_s_mstruct              1  4.0    0.000    0.000    0.115    0.157
 mp_irecv_iv                     303424  8.3    0.019    0.150    0.019    0.150
 pw_scatter_p                       490 12.2    0.145    0.147    0.145    0.147
 dbcsr_data_copy_aa2              77521 11.3    0.135    0.143    0.135    0.143
 dbcsr_zero                      186206  8.9    0.118    0.127    0.118    0.127
 dbcsr_switch_data_area          103201 10.5    0.093    0.095    0.122    0.125
 mp_bcast_am_src                    153  7.2    0.102    0.111    0.118    0.125
 calculate_rho_core                   1  5.0    0.002    0.003    0.065    0.121
 transfer_pw2rs_170                  49 12.0    0.051    0.055    0.106    0.121
 cp_fm_cleanup_copy_general       53904  7.0    0.077    0.078    0.117    0.119
 pw_poisson_solve                    49  8.0    0.001    0.001    0.114    0.114
 mp_isend_iv                     170824  8.3    0.028    0.106    0.028    0.106
 transfer_rs2pw_170                  50  9.0    0.043    0.044    0.100    0.104
 cp_cfm_scale_and_add_fm           6420  6.9    0.098    0.100    0.098    0.100
 mp_isendrecv_dv                   1379 13.0    0.049    0.097    0.049    0.097
 fft_wrap_pw1pw2_170                 99 10.5    0.007    0.007    0.093    0.095
 mixing_allocate                      1  3.0    0.003    0.003    0.083    0.091
 dbcsr_distribution_new           77523  8.6    0.071    0.084    0.071    0.084
 build_core_ppnl                      1  5.0    0.062    0.082    0.062    0.082
 dbcsr_get_data_size_used        180722  9.8    0.077    0.080    0.077    0.080
 pw_integral_ab_c1d_c1d_gs           49  9.0    0.077    0.078    0.079    0.080
 mp_irecv_im2                    151712  8.3    0.009    0.074    0.009    0.074
 pw_gather_p                        397 11.8    0.068    0.069    0.068    0.069
 mp_sum_dv                          344  3.6    0.037    0.069    0.037    0.069
 qs_init_subsys                       1  2.0    0.001    0.002    0.066    0.066
 dbcsr_make_dbcsr_index          209991 10.9    0.062    0.064    0.062    0.064
 qs_env_setup                         1  3.0    0.000    0.000    0.063    0.063
 qs_env_rebuild_pw_env                2  3.5    0.000    0.000    0.062    0.063
 pw_env_rebuild                       1  5.0    0.000    0.001    0.062    0.063
 mp_recv_dv                        4995  7.0    0.007    0.056    0.007    0.056
 pw_grid_setup                        4  6.0    0.000    0.000    0.055    0.055
 pw_grid_setup_internal               4  7.0    0.001    0.002    0.055    0.055
 build_overlap_matrix_low             1  5.0    0.008    0.009    0.048    0.053
 build_kinetic_matrix_low             1  5.0    0.007    0.009    0.047    0.053
 mp_isend_im2                     85412  8.3    0.012    0.049    0.012    0.049
 mp_irecv_dv                      76448  8.3    0.044    0.046    0.044    0.046
 coordinate_control                   1  3.0    0.001    0.001    0.046    0.046
 coordinate_control_READ_COORDI       1  4.0    0.000    0.000    0.045    0.046
 read_coordinate_cif                  1  5.0    0.002    0.003    0.045    0.046
 qs_env_rebuild_rho                   1  5.0    0.000    0.000    0.041    0.045
 qs_rho_rebuild                       1  6.0    0.002    0.002    0.041    0.045
 cp_cfm_to_cfm_columns             1605  7.9    0.040    0.041    0.040    0.041
 cp_cfm_to_fm                      1605  6.9    0.040    0.040    0.040    0.040
 pw_copy_from_array                 490 12.2    0.032    0.040    0.032    0.040
 scf_post_calculation_gpw             1  3.0    0.000    0.000    0.039    0.039
 write_available_results              1  4.0    0.000    0.000    0.039    0.039
 pw_copy                            735 10.5    0.038    0.039    0.038    0.039
 write_mo_free_results                1  5.0    0.002    0.002    0.039    0.039
 restraint_control                    1  2.0    0.000    0.000    0.019    0.039
 mp_sum_i                             4  2.8    0.019    0.039    0.019    0.039
 pw_derive                          441 11.3    0.036    0.037    0.036    0.037
 pw_grid_sort                         4  8.0    0.024    0.024    0.036    0.036
 calculate_first_density_matrix       1  5.0    0.000    0.000    0.012    0.033
 calculate_atomic_block_dm            1  6.0    0.001    0.001    0.010    0.032
 fft_wrap_pw1pw2_60                  99 10.5    0.002    0.002    0.030    0.031
 transfer_pw2rs_60                   49 12.0    0.010    0.010    0.025    0.029
 mixing_init                          1  5.0    0.025    0.028    0.028    0.028
 build_core_ppl                       1  5.0    0.023    0.028    0.023    0.028
 mp_sum_dm                           48  7.0    0.015    0.027    0.015    0.027
 transfer_rs2pw_60                   50  9.0    0.007    0.008    0.023    0.025
 pw_poisson_set                      50  8.9    0.001    0.001    0.023    0.023
 cp_fm_to_fm_matrix                3136  8.0    0.022    0.023    0.022    0.023
 calculate_ecore_overlap              1  4.0    0.000    0.000    0.007    0.022
 qs_scf_print_scf_summary             1  5.0    0.003    0.018    0.003    0.018
 mp_comm_size                     55797  9.0    0.015    0.018    0.015    0.018
 hirshfeld_integration                1  6.0    0.008    0.008    0.017    0.017
 calculate_hirshfeld_normalizat       1  6.0    0.007    0.007    0.016    0.016
 pw_axpy                            494  9.3    0.015    0.016    0.015    0.016
 mp_sum_iv                           24  5.3    0.004    0.015    0.004    0.015
 qs_scf_ensure_work_matrices          1  3.0    0.000    0.000    0.004    0.015
 cp_fm_create                       472  4.1    0.014    0.015    0.014    0.015
 -------------------------------------------------------------------------------

 The number of warnings for this run is : 1
 
 -------------------------------------------------------------------------------
  **** **** ******  **  PROGRAM ENDED AT                 2025-08-03 17:11:52.410
 ***** ** ***  *** **   PROGRAM RAN ON                              i06r04c02s03
 **    ****   ******    PROGRAM RAN BY                                   di38fab
 ***** **    ** ** **   PROGRAM PROCESS ID                               3133941
  **** **  *******  **  PROGRAM STOPPED IN /hppfs/scratch/04/di38fab/09_GTH/Delt
                                           a_Set/P/DZVP-MOLOPT-PBE-GTH/8x8x8
