Si                                      
   1.00000000000000     
     3.348998    0.000000    1.933545
     1.116333    3.157466    1.933545
     0.000000    0.000000    3.867090
   Si
     2
Direct
  0.000000  0.000000  0.000000
  0.250000  0.250000  0.250000
 
   36   36   36
 -7.5605     -6.1441     -2.2756      3.0425      8.5378      13.075      15.959      17.037      16.628      15.321    
  13.727      12.137      10.674      9.4149      8.3952      7.6209      7.0828      6.7675      6.6637      6.7675    
  7.0828      7.6209      8.3952      9.4149      10.674      12.137      13.727      15.321      16.628      17.037    
  15.959      13.075      8.5378      3.0426     -2.2756     -6.1441     -6.1441     -3.3222      1.5465      7.2085    
  12.374      16.104      18.009      18.227      17.259      15.747      14.139      12.597      11.214      10.047    
  9.1193      8.4340      7.9848      7.7630      7.7630      7.9848      8.4340      9.1193      10.047      11.214    
  12.597      14.139      15.747      17.259      18.227      18.009      16.105      12.374      7.2085      1.5465    
 -3.3223     -6.1442     -2.2756      1.5465      6.7215      11.950      16.132      18.657      19.461      18.909    
  17.589      16.044      14.497      13.055      11.787      10.732      9.9090      9.3228      8.9725      8.8561    
  8.9725      9.3228      9.9090      10.732      11.787      13.055      14.497      16.044      17.589      18.909    
  19.461      18.657      16.132      11.950      6.7215      1.5465     -2.2756     -3.6859      3.0425      7.2085    
  11.950      16.131      18.981      20.243      20.114      19.081      17.686      16.223      14.803      13.502    
  12.371      11.440      10.727      10.246      10.003      10.003      10.246      10.727      11.440      12.371    
  13.502      14.803      16.223      17.686      19.081      20.114      20.243      18.981      16.131      11.950    
  7.2085      3.0426     0.59794     0.59794      8.5378      12.374      16.132      18.981      20.511      20.751    
  20.054      18.901      17.612      16.305      15.057      13.920      12.933      12.124      11.521      11.147    
  11.020      11.147      11.521      12.124      12.933      13.920      15.057      16.305      17.612      18.901    
  20.054      20.751      20.511      18.981      16.132      12.374      8.5378      5.6535      4.5802      5.6534    
  13.075      16.104      18.657      20.243      20.751      20.393      19.548      18.515      17.411      16.305    
  15.248      14.275      13.422      12.726      12.228      11.967      11.966      12.228      12.726      13.422    
  14.275      15.248      16.305      17.411      18.516      19.548      20.393      20.751      20.243      18.657    
  16.104      13.075      10.345      8.7212      8.7212      10.345      15.959      18.009      19.461      20.114    
  20.054      19.548      18.829      17.998      17.115      16.223      15.349      14.521      13.782      13.184    
  12.790      12.652      12.790      13.184      13.782      14.521      15.349      16.223      17.115      17.998    
  18.829      19.548      20.054      20.114      19.461      18.009      15.959      13.789      12.125      11.501    
  12.125      13.789      17.037      18.227      18.909      19.081      18.901      18.515      17.998      17.396    
  16.740      16.044      15.323      14.609      13.958      13.443      13.155      13.155      13.443      13.958    
  14.609      15.323      16.044      16.740      17.396      17.998      18.516      18.901      19.081      18.909    
  18.227      17.037      15.563      14.201      13.381      13.381      14.201      15.563      16.628      17.259    
  17.589      17.686      17.612      17.411      17.115      16.740      16.285      15.747      15.139      14.497    
  13.896      13.458      13.297      13.458      13.896      14.497      15.139      15.747      16.285      16.740    
  17.115      17.411      17.612      17.686      17.589      17.259      16.628      15.742      14.794      14.059    
  13.782      14.059      14.793      15.742      15.321      15.747      16.044      16.223      16.305      16.305    
  16.223      16.044      15.747      15.321      14.772      14.154      13.601      13.271      13.271      13.601    
  14.154      14.772      15.321      15.747      16.044      16.223      16.305      16.305      16.223      16.044    
  15.747      15.321      14.772      14.154      13.601      13.271      13.271      13.601      14.154      14.772    
  13.727      14.139      14.497      14.803      15.057      15.248      15.349      15.323      15.139      14.772    
  14.237      13.648      13.185      13.008      13.185      13.649      14.237      14.772      15.139      15.323    
  15.349      15.248      15.057      14.803      14.497      14.139      13.727      13.270      12.798      12.373    
  12.068      11.956      12.068      12.373      12.798      13.270      12.137      12.597      13.055      13.502    
  13.920      14.275      14.521      14.609      14.497      14.154      13.648      13.142      12.826      12.826    
  13.142      13.649      14.154      14.497      14.609      14.521      14.275      13.920      13.502      13.055    
  12.597      12.137      11.682      11.246      10.860      10.563      10.400      10.400      10.563      10.860    
  11.246      11.682      10.674      11.214      11.787      12.371      12.933      13.422      13.782      13.958    
  13.896      13.601      13.185      12.826      12.684      12.826      13.185      13.601      13.896      13.958    
  13.782      13.422      12.933      12.371      11.787      11.214      10.674      10.176      9.7290      9.3455    
  9.0445      8.8499      8.7824      8.8500      9.0445      9.3454      9.7289      10.176      9.4149      10.047    
  10.732      11.440      12.124      12.726      13.184      13.443      13.458      13.271      13.008      12.826    
  12.826      13.008      13.271      13.458      13.443      13.184      12.726      12.124      11.440      10.732    
  10.047      9.4149      8.8508      8.3624      7.9545      7.6336      7.4097      7.2941      7.2941      7.4097    
  7.6335      7.9544      8.3625      8.8509      8.3952      9.1193      9.9090      10.727      11.521      12.228    
  12.790      13.155      13.297      13.271      13.185      13.142      13.185      13.271      13.297      13.155    
  12.790      12.228      11.521      10.727      9.9090      9.1193      8.3953      7.7572      7.2131      6.7643    
  6.4106      6.1535      5.9965      5.9436      5.9965      6.1535      6.4106      6.7643      7.2131      7.7572    
  7.6209      8.4340      9.3228      10.246      11.147      11.967      12.652      13.155      13.458      13.601    
  13.649      13.649      13.601      13.458      13.155      12.652      11.967      11.147      10.246      9.3227    
  8.4340      7.6209      6.9075      6.3027      5.8059      5.4127      5.1189      4.9227      4.8242      4.8242    
  4.9227      5.1189      5.4127      5.8059      6.3027      6.9075      7.0828      7.9848      8.9725      10.003    
  11.020      11.966      12.790      13.443      13.896      14.154      14.237      14.154      13.896      13.443    
  12.790      11.967      11.020      10.003      8.9725      7.9848      7.0828      6.2929      5.6248      5.0767    
  4.6408      4.3089      4.0747      3.9350      3.8885      3.9350      4.0747      4.3089      4.6408      5.0767    
  5.6248      6.2929      6.7675      7.7630      8.8561      10.003      11.147      12.228      13.184      13.958    
  14.497      14.772      14.772      14.497      13.958      13.184      12.228      11.147      10.003      8.8561    
  7.7630      6.7675      5.8966      5.1609      4.5574      4.0759      3.7045      3.4332      3.2552      3.1670    
  3.1670      3.2552      3.4332      3.7045      4.0759      4.5574      5.1609      5.8967      6.6637      7.7630    
  8.9725      10.246      11.521      12.726      13.782      14.609      15.139      15.321      15.139      14.609    
  13.782      12.726      11.521      10.246      8.9725      7.7630      6.6638      5.7031      4.8917      4.2259    
  3.6934      3.2793      2.9700      2.7552      2.6285      2.5866      2.6285      2.7551      2.9699      3.2793    
  3.6935      4.2259      4.8918      5.7031      6.7675      7.9848      9.3228      10.727      12.124      13.422    
  14.521      15.323      15.747      15.747      15.323      14.521      13.422      12.124      10.727      9.3227    
  7.9848      6.7675      5.7031      4.8037      4.0649      3.4728      3.0097      2.6586      2.4060      2.2424    
  2.1619      2.1619      2.2424      2.4060      2.6586      3.0097      3.4728      4.0649      4.8036      5.7031    
  7.0828      8.4340      9.9090      11.440      12.933      14.275      15.349      16.044      16.285      16.044    
  15.349      14.275      12.933      11.440      9.9090      8.4340      7.0828      5.8966      4.8917      4.0649    
  3.4008      2.8790      2.4795      2.1853      1.9837      1.8660      1.8273      1.8660      1.9837      2.1853    
  2.4795      2.8790      3.4008      4.0649      4.8918      5.8967      7.6209      9.1193      10.732      12.371    
  13.920      15.248      16.223      16.740      16.740      16.223      15.248      13.920      12.371      10.732    
  9.1193      7.6209      6.2929      5.1609      4.2259      3.4728      2.8790      2.4210      2.0784      1.8350    
  1.6792      1.6032      1.6032      1.6792      1.8350      2.0784      2.4210      2.8790      3.4728      4.2259    
  5.1609      6.2929      8.3952      10.047      11.787      13.502      15.057      16.305      17.115      17.396    
  17.115      16.305      15.057      13.502      11.787      10.047      8.3953      6.9075      5.6248      4.5574    
  3.6934      3.0097      2.4795      2.0784      1.7865      1.5888      1.4745      1.4371      1.4745      1.5888    
  1.7865      2.0784      2.4795      3.0097      3.6935      4.5574      5.6248      6.9075      9.4149      11.214    
  13.055      14.803      16.305      17.411      17.998      17.998      17.411      16.305      14.803      13.055    
  11.214      9.4149      7.7572      6.3027      5.0767      4.0759      3.2793      2.6586      2.1853      1.8350    
  1.5888      1.4325      1.3568      1.3568      1.4325      1.5888      1.8350      2.1853      2.6586      3.2793    
  4.0759      5.0767      6.3027      7.7572      10.674      12.597      14.497      16.223      17.612      18.516    
  18.829      18.516      17.612      16.223      14.497      12.597      10.674      8.8508      7.2131      5.8059    
  4.6408      3.7045      2.9700      2.4060      1.9837      1.6792      1.4745      1.3568      1.3184      1.3568    
  1.4745      1.6792      1.9837      2.4060      2.9699      3.7045      4.6408      5.8059      7.2131      8.8509    
  12.137      14.139      16.044      17.686      18.901      19.548      19.548      18.901      17.686      16.044    
  14.139      12.137      10.176      8.3624      6.7643      5.4127      4.3089      3.4332      2.7552      2.2424    
  1.8660      1.6032      1.4371      1.3568      1.3568      1.4371      1.6032      1.8660      2.2424      2.7551    
  3.4332      4.3089      5.4127      6.7643      8.3625      10.176      13.727      15.747      17.589      19.081    
  20.054      20.393      20.054      19.081      17.589      15.747      13.727      11.682      9.7290      7.9545    
  6.4106      5.1189      4.0747      3.2552      2.6285      2.1619      1.8273      1.6032      1.4745      1.4325    
  1.4745      1.6032      1.8273      2.1619      2.6285      3.2552      4.0747      5.1189      6.4106      7.9544    
  9.7289      11.682      15.321      17.259      18.909      20.114      20.751      20.751      20.114      18.909    
  17.259      15.321      13.270      11.246      9.3455      7.6336      6.1535      4.9227      3.9350      3.1670    
  2.5866      2.1619      1.8660      1.6792      1.5888      1.5888      1.6792      1.8660      2.1619      2.5866    
  3.1670      3.9350      4.9227      6.1535      7.6335      9.3454      11.246      13.270      16.628      18.227    
  19.461      20.243      20.511      20.243      19.461      18.227      16.628      14.772      12.798      10.860    
  9.0445      7.4097      5.9965      4.8242      3.8885      3.1670      2.6285      2.2424      1.9837      1.8350    
  1.7865      1.8350      1.9837      2.2424      2.6285      3.1670      3.8885      4.8242      5.9965      7.4097    
  9.0445      10.860      12.798      14.772      17.037      18.009      18.657      18.981      18.981      18.657    
  18.009      17.037      15.742      14.154      12.373      10.563      8.8499      7.2941      5.9436      4.8242    
  3.9350      3.2552      2.7551      2.4060      2.1853      2.0784      2.0784      2.1853      2.4060      2.7551    
  3.2552      3.9350      4.8242      5.9436      7.2941      8.8500      10.563      12.373      14.154      15.742    
  15.959      16.105      16.132      16.131      16.132      16.104      15.959      15.563      14.794      13.601    
  12.068      10.400      8.7824      7.2941      5.9965      4.9227      4.0747      3.4332      2.9699      2.6586    
  2.4795      2.4210      2.4795      2.6586      2.9699      3.4332      4.0747      4.9227      5.9965      7.2941    
  8.7824      10.400      12.068      13.601      14.793      15.563      13.075      12.374      11.950      11.950    
  12.374      13.075      13.789      14.201      14.059      13.271      11.956      10.400      8.8500      7.4097    
  6.1535      5.1189      4.3089      3.7045      3.2793      3.0097      2.8790      2.8790      3.0097      3.2793    
  3.7045      4.3089      5.1189      6.1535      7.4097      8.8500      10.400      11.956      13.271      14.059    
  14.201      13.789      8.5378      7.2085      6.7215      7.2085      8.5378      10.345      12.125      13.381    
  13.782      13.271      12.068      10.563      9.0445      7.6335      6.4106      5.4127      4.6408      4.0759    
  3.6935      3.4728      3.4008      3.4728      3.6935      4.0759      4.6408      5.4127      6.4106      7.6335    
  9.0445      10.563      12.068      13.271      13.782      13.381      12.125      10.345      3.0426      1.5465    
  1.5465      3.0426      5.6535      8.7212      11.501      13.381      14.059      13.601      12.373      10.860    
  9.3454      7.9544      6.7643      5.8059      5.0767      4.5574      4.2259      4.0649      4.0649      4.2259    
  4.5574      5.0767      5.8059      6.7643      7.9544      9.3454      10.860      12.373      13.601      14.059    
  13.381      11.501      8.7212      5.6535     -2.2756     -3.3223     -2.2756     0.59794      4.5802      8.7212    
  12.125      14.201      14.793      14.154      12.798      11.246      9.7289      8.3625      7.2131      6.3027    
  5.6248      5.1609      4.8918      4.8036      4.8918      5.1609      5.6248      6.3027      7.2131      8.3625    
  9.7289      11.246      12.798      14.154      14.793      14.201      12.125      8.7212      4.5802     0.59802    
 -6.1441     -6.1442     -3.6859     0.59794      5.6534      10.345      13.789      15.563      15.742      14.772    
  13.270      11.682      10.176      8.8509      7.7572      6.9075      6.2929      5.8967      5.7031      5.7031    
  5.8967      6.2929      6.9075      7.7572      8.8509      10.176      11.682      13.270      14.772      15.742    
  15.563      13.789      10.345      5.6535     0.59802     -3.6858     -6.1441     -3.3222      1.5465      7.2085    
  12.374      16.104      18.009      18.227      17.259      15.747      14.139      12.597      11.214      10.047    
  9.1193      8.4340      7.9848      7.7630      7.7630      7.9848      8.4340      9.1193      10.047      11.214    
  12.597      14.139      15.747      17.259      18.227      18.009      16.105      12.374      7.2085      1.5465    
 -3.3223     -6.1442     -3.3222     0.68559      6.1172      11.617      16.038      18.743      19.660      19.160    
  17.846      16.285      14.719      13.256      11.968      10.895      10.057      9.4599      9.1029      8.9842    
  9.1029      9.4599      10.057      10.895      11.968      13.256      14.719      16.285      17.846      19.160    
  19.660      18.743      16.038      11.617      6.1172     0.68547     -3.3223     -4.8005      1.5465      6.1172    
  11.334      15.966      19.176      20.677      20.671      19.666      18.243      16.740      15.277      13.934    
  12.762      11.795      11.053      10.552      10.299      10.299      10.552      11.053      11.795      12.762    
  13.934      15.277      16.740      18.243      19.666      20.671      20.677      19.176      15.966      11.334    
  6.1172      1.5465     -1.1324     -1.1324      7.2085      11.617      15.966      19.320      21.207      21.647    
  21.013      19.829      18.484      17.115      15.803      14.602      13.554      12.693      12.049      11.649    
  11.513      11.649      12.049      12.693      13.554      14.602      15.803      17.115      18.484      19.829    
  21.013      21.647      21.207      19.320      15.966      11.617      7.2085      3.9044      2.6764      3.9043    
  12.374      16.038      19.176      21.207      21.985      21.731      20.866      19.772      18.595      17.411    
  16.270      15.215      14.283      13.518      12.969      12.681      12.681      12.969      13.518      14.283    
  15.215      16.270      17.411      18.595      19.772      20.866      21.731      21.985      21.207      19.176    
  16.038      12.374      9.0948      7.1509      7.1508      9.0948      16.104      18.743      20.677      21.647    
  21.731      21.227      20.458      19.558      18.595      17.612      16.639      15.709      14.871      14.188    
  13.734      13.573      13.734      14.188      14.871      15.709      16.639      17.612      18.595      19.558    
  20.458      21.227      21.731      21.647      20.677      18.743      16.104      13.355      11.262      10.478    
  11.262      13.355      18.009      19.660      20.671      21.013      20.866      20.458      19.892      19.224    
  18.484      17.686      16.849      16.009      15.221      14.587      14.229      14.229      14.587      15.221    
  16.009      16.849      17.686      18.484      19.224      19.892      20.458      20.866      21.013      20.671    
  19.660      18.009      16.021      14.209      13.124      13.124      14.209      16.021      18.227      19.160    
  19.666      19.829      19.772      19.558      19.224      18.787      18.243      17.589      16.829      15.994    
  15.196      14.610      14.394      14.610      15.196      15.994      16.829      17.589      18.243      18.787    
  19.224      19.558      19.772      19.829      19.666      19.160      18.227      16.955      15.617      14.591    
  14.205      14.591      15.617      16.955      17.259      17.846      18.243      18.484      18.595      18.595    
  18.484      18.243      17.846      17.259      16.468      15.569      14.765      14.286      14.286      14.765    
  15.569      16.468      17.259      17.846      18.243      18.484      18.595      18.595      18.484      18.243    
  17.846      17.259      16.468      15.569      14.765      14.286      14.286      14.765      15.569      16.468    
  15.747      16.285      16.740      17.115      17.411      17.612      17.686      17.589      17.259      16.628    
  15.742      14.793      14.059      13.782      14.059      14.794      15.742      16.628      17.259      17.589    
  17.686      17.612      17.411      17.115      16.740      16.285      15.747      15.139      14.497      13.896    
  13.458      13.297      13.458      13.896      14.497      15.139      14.139      14.719      15.277      15.803    
  16.270      16.639      16.849      16.829      16.468      15.742      14.790      13.888      13.337      13.337    
  13.888      14.790      15.742      16.468      16.829      16.849      16.639      16.270      15.803      15.277    
  14.719      14.139      13.551      12.978      12.462      12.063      11.843      11.843      12.063      12.462    
  12.978      13.551      12.597      13.256      13.934      14.602      15.215      15.709      16.009      15.994    
  15.569      14.793      13.888      13.161      12.883      13.161      13.888      14.793      15.569      15.994    
  16.009      15.709      15.215      14.602      13.934      13.256      12.597      11.974      11.403      10.905    
  10.510      10.252      10.163      10.252      10.510      10.905      11.403      11.974      11.214      11.968    
  12.762      13.554      14.283      14.871      15.221      15.196      14.765      14.059      13.337      12.883    
  12.883      13.337      14.059      14.765      15.196      15.221      14.871      14.283      13.554      12.762    
  11.968      11.214      10.527      9.9206      9.4069      8.9986      8.7119      8.5632      8.5632      8.7119    
  8.9986      9.4069      9.9206      10.527      10.047      10.895      11.795      12.693      13.518      14.188    
  14.587      14.610      14.286      13.782      13.337      13.161      13.337      13.782      14.286      14.610    
  14.587      14.188      13.518      12.693      11.795      10.895      10.047      9.2843      8.6232      8.0718    
  7.6340      7.3144      7.1189      7.0529      7.1189      7.3144      7.6340      8.0718      8.6232      9.2843    
  9.1193      10.057      11.053      12.049      12.969      13.734      14.229      14.394      14.286      14.059    
  13.888      13.888      14.059      14.286      14.394      14.229      13.734      12.969      12.049      11.053    
  10.057      9.1193      8.2790      7.5559      6.9562      6.4790      6.1218      5.8833      5.7637      5.7636    
  5.8833      6.1218      6.4790      6.9562      7.5559      8.2790      8.4340      9.4599      10.552      11.649    
  12.681      13.573      14.229      14.610      14.765      14.794      14.790      14.793      14.765      14.610    
  14.229      13.573      12.681      11.649      10.552      9.4599      8.4340      7.5163      6.7286      6.0763    
  5.5553      5.1583      4.8785      4.7119      4.6565      4.7119      4.8786      5.1583      5.5553      6.0763    
  6.7285      7.5163      7.9848      9.1029      10.299      11.513      12.681      13.734      14.587      15.196    
  15.569      15.742      15.742      15.569      15.196      14.587      13.734      12.681      11.513      10.299    
  9.1029      7.9848      6.9865      6.1309      5.4227      4.8554      4.4175      4.0980      3.8888      3.7853    
  3.7853      3.8888      4.0980      4.4174      4.8553      5.4227      6.1309      6.9866      7.7630      8.9842    
  10.299      11.649      12.969      14.188      15.221      15.994      16.468      16.628      16.468      15.994    
  15.221      14.188      12.969      11.649      10.299      8.9843      7.7630      6.6762      5.7458      4.9760    
  4.3580      3.8770      3.5180      3.2692      3.1226      3.0742      3.1226      3.2692      3.5180      3.8770    
  4.3580      4.9761      5.7459      6.6762      7.7630      9.1029      10.552      12.049      13.518      14.871    
  16.009      16.829      17.259      17.259      16.829      16.009      14.871      13.518      12.049      10.552    
  9.1029      7.7630      6.5741      5.5578      4.7170      4.0409      3.5117      3.1109      2.8229      2.6364    
  2.5447      2.5447      2.6364      2.8229      3.1109      3.5117      4.0409      4.7170      5.5578      6.5741    
  7.9848      9.4599      11.053      12.693      14.283      15.709      16.849      17.589      17.846      17.589    
  16.849      15.709      14.283      12.693      11.053      9.4599      7.9848      6.6762      5.5578      4.6323    
  3.8869      3.3011      2.8530      2.5233      2.2973      2.1654      2.1220      2.1653      2.2973      2.5233    
  2.8530      3.3011      3.8869      4.6323      5.5578      6.6762      8.4340      10.057      11.795      13.554    
  15.215      16.639      17.686      18.243      18.243      17.686      16.639      15.215      13.554      11.795    
  10.057      8.4340      6.9865      5.7458      4.7170      3.8869      3.2324      2.7281      2.3510      2.0831    
  1.9113      1.8274      1.8274      1.9113      2.0831      2.3510      2.7281      3.2324      3.8869      4.7170    
  5.7459      6.9866      9.1193      10.895      12.762      14.602      16.270      17.612      18.484      18.787    
  18.484      17.612      16.270      14.602      12.762      10.895      9.1193      7.5163      6.1309      4.9760    
  4.0409      3.3011      2.7281      2.2948      1.9794      1.7654      1.6414      1.6008      1.6414      1.7654    
  1.9794      2.2948      2.7281      3.3011      4.0409      4.9761      6.1309      7.5163      10.047      11.968    
  13.934      15.803      17.411      18.595      19.224      19.224      18.595      17.411      15.803      13.934    
  11.968      10.047      8.2790      6.7286      5.4227      4.3580      3.5117      2.8530      2.3510      1.9794    
  1.7178      1.5515      1.4707      1.4707      1.5515      1.7178      1.9794      2.3510      2.8530      3.5117    
  4.3580      5.4227      6.7285      8.2790      11.214      13.256      15.277      17.115      18.595      19.558    
  19.892      19.558      18.595      17.115      15.277      13.256      11.214      9.2843      7.5559      6.0763    
  4.8554      3.8770      3.1109      2.5233      2.0831      1.7654      1.5515      1.4283      1.3882      1.4283    
  1.5515      1.7654      2.0831      2.5233      3.1109      3.8770      4.8553      6.0763      7.5559      9.2843    
  12.597      14.719      16.740      18.484      19.772      20.458      20.458      19.772      18.484      16.740    
  14.719      12.597      10.527      8.6232      6.9562      5.5553      4.4175      3.5180      2.8229      2.2973    
  1.9113      1.6414      1.4707      1.3882      1.3882      1.4707      1.6414      1.9113      2.2973      2.8229    
  3.5180      4.4174      5.5553      6.9562      8.6232      10.527      14.139      16.285      18.243      19.829    
  20.866      21.227      20.866      19.829      18.243      16.285      14.139      11.974      9.9206      8.0718    
  6.4790      5.1583      4.0980      3.2692      2.6364      2.1654      1.8274      1.6008      1.4707      1.4283    
  1.4707      1.6008      1.8274      2.1654      2.6364      3.2692      4.0980      5.1583      6.4790      8.0718    
  9.9206      11.974      15.747      17.846      19.666      21.013      21.731      21.731      21.013      19.666    
  17.846      15.747      13.551      11.403      9.4069      7.6340      6.1218      4.8785      3.8888      3.1226    
  2.5447      2.1220      1.8274      1.6414      1.5515      1.5515      1.6414      1.8274      2.1220      2.5447    
  3.1226      3.8888      4.8786      6.1218      7.6340      9.4069      11.403      13.551      17.259      19.160    
  20.671      21.647      21.985      21.647      20.671      19.160      17.259      15.139      12.978      10.905    
  8.9986      7.3144      5.8833      4.7119      3.7853      3.0742      2.5447      2.1653      1.9113      1.7654    
  1.7178      1.7654      1.9113      2.1654      2.5447      3.0742      3.7853      4.7119      5.8833      7.3144    
  8.9986      10.905      12.978      15.139      18.227      19.660      20.677      21.207      21.207      20.677    
  19.660      18.227      16.468      14.497      12.462      10.510      8.7119      7.1189      5.7637      4.6565    
  3.7853      3.1226      2.6364      2.2973      2.0831      1.9794      1.9794      2.0831      2.2973      2.6364    
  3.1226      3.7853      4.6565      5.7636      7.1189      8.7119      10.510      12.462      14.497      16.468    
  18.009      18.743      19.176      19.320      19.176      18.743      18.009      16.955      15.569      13.896    
  12.063      10.252      8.5632      7.0529      5.7636      4.7119      3.8888      3.2692      2.8229      2.5233    
  2.3510      2.2948      2.3510      2.5233      2.8229      3.2692      3.8888      4.7119      5.7636      7.0529    
  8.5632      10.252      12.063      13.896      15.569      16.955      16.105      16.038      15.966      15.966    
  16.038      16.104      16.021      15.617      14.765      13.458      11.843      10.163      8.5632      7.1189    
  5.8833      4.8786      4.0980      3.5180      3.1109      2.8530      2.7281      2.7281      2.8530      3.1109    
  3.5180      4.0980      4.8786      5.8833      7.1189      8.5632      10.163      11.843      13.458      14.765    
  15.617      16.021      12.374      11.617      11.334      11.617      12.374      13.355      14.209      14.591    
  14.286      13.297      11.843      10.252      8.7119      7.3144      6.1218      5.1583      4.4174      3.8770    
  3.5117      3.3011      3.2324      3.3011      3.5117      3.8770      4.4174      5.1583      6.1218      7.3144    
  8.7119      10.252      11.843      13.297      14.286      14.591      14.209      13.355      7.2085      6.1172    