Si                                      
   1.00000000000000     
     3.348998    0.000000    1.933545
     1.116333    3.157466    1.933545
     0.000000    0.000000    3.867090
   Si
     2
Direct
  0.000000  0.000000  0.000000
  0.250000  0.250000  0.250000
 
   36   36   36
 -.75604685021E+01 -.61441041580E+01 -.22755737744E+01 0.30425477673E+01 0.85377745360E+01
 0.13075301769E+02 0.15958786697E+02 0.17037246435E+02 0.16627532640E+02 0.15321313264E+02
 0.13727353014E+02 0.12136517192E+02 0.10673647548E+02 0.94149464777E+01 0.83952420846E+01
 0.76208633047E+01 0.70828378320E+01 0.67674673351E+01 0.66637188592E+01 0.67674667373E+01
 0.70828384552E+01 0.76208668352E+01 0.83952468764E+01 0.94149486558E+01 0.10673648002E+02
 0.12136522879E+02 0.13727364453E+02 0.15321314636E+02 0.16627506713E+02 0.17037202289E+02
 0.15958760720E+02 0.13075321139E+02 0.85378249483E+01 0.30425877892E+01 -.22755672207E+01
 -.61441147864E+01 -.61441041580E+01 -.33222282486E+01 0.15465327685E+01 0.72084505363E+01
 0.12373794056E+02 0.16104484436E+02 0.18009333330E+02 0.18226594640E+02 0.17259093759E+02
 0.15746741453E+02 0.14139215469E+02 0.12596585475E+02 0.11214305527E+02 0.10047285339E+02
 0.91192969450E+01 0.84339715349E+01 0.79847818215E+01 0.77629952653E+01 0.77629938590E+01
 0.79847785417E+01 0.84339698310E+01 0.91192999750E+01 0.10047289853E+02 0.11214305332E+02
 0.12596584170E+02 0.14139224972E+02 0.15746760051E+02 0.17259098467E+02 0.18226572060E+02
 0.18009309924E+02 0.16104500943E+02 0.12373844644E+02 0.72084721260E+01 0.15464759623E+01
 -.33223284765E+01 -.61441543121E+01 -.22755737744E+01 0.15465327685E+01 0.67215341232E+01
 0.11949615851E+02 0.16131955399E+02 0.18656826899E+02 0.19460636007E+02 0.18909047294E+02
 0.17588951207E+02 0.16043748254E+02 0.14496875364E+02 0.13054867054E+02 0.11786814810E+02
 0.10732097317E+02 0.99089977155E+01 0.93227715557E+01 0.89725164491E+01 0.88560746318E+01
 0.89725121994E+01 0.93227651206E+01 0.99089950173E+01 0.10732101593E+02 0.11786819205E+02
 0.13054863605E+02 0.14496870350E+02 0.16043755488E+02 0.17588968329E+02 0.18909054732E+02
 0.19460627268E+02 0.18656823680E+02 0.16131975766E+02 0.11949637127E+02 0.67215115292E+01
 0.15464601260E+01 -.22756413303E+01 -.36858624176E+01 0.30425477673E+01 0.72084505363E+01
 0.11949615851E+02 0.16130915782E+02 0.18981463488E+02 0.20242525427E+02 0.20114072236E+02
 0.19080501706E+02 0.17686423026E+02 0.16222834243E+02 0.14802828193E+02 0.13502404379E+02
 0.12371073037E+02 0.11439767830E+02 0.10727376422E+02 0.10245781634E+02 0.10002834059E+02
 0.10002830784E+02 0.10245772951E+02 0.10727367987E+02 0.11439768131E+02 0.12371082656E+02
 0.13502412281E+02 0.14802825951E+02 0.16222828836E+02 0.17686426646E+02 0.19080512385E+02
 0.20114074941E+02 0.20242512574E+02 0.18981445433E+02 0.16130908290E+02 0.11949623447E+02
 0.72084653579E+01 0.30425599029E+01 0.59794002213E+00 0.59793562152E+00 0.85377745360E+01
 0.12373794056E+02 0.16131955399E+02 0.18981463488E+02 0.20510780557E+02 0.20751153525E+02
 0.20054040371E+02 0.18900833683E+02 0.17611743236E+02 0.16304970383E+02 0.15056999970E+02
 0.13920340040E+02 0.12932753304E+02 0.12124195686E+02 0.11521099584E+02 0.11147197163E+02
 0.11020300438E+02 0.11147186483E+02 0.11521083413E+02 0.12124184943E+02 0.12932756884E+02
 0.13920354315E+02 0.15057012263E+02 0.16304974636E+02 0.17611746020E+02 0.18900842123E+02
 0.20054049720E+02 0.20751150974E+02 0.20510759642E+02 0.18981433450E+02 0.16131937259E+02
 0.12373804592E+02 0.85378087808E+01 0.56534708465E+01 0.45802184307E+01 0.56534403357E+01
 0.13075301769E+02 0.16104484436E+02 0.18656826899E+02 0.20242525427E+02 0.20751153525E+02
 0.20392556178E+02 0.19547981085E+02 0.18515494622E+02 0.17410515459E+02 0.16304969858E+02
 0.15247684926E+02 0.14275441445E+02 0.13422354628E+02 0.12725936460E+02 0.12227714330E+02
 0.11966500669E+02 0.11966493181E+02 0.12227693953E+02 0.12725911948E+02 0.13422339907E+02
 0.14275443543E+02 0.15247696699E+02 0.16304980646E+02 0.17410524841E+02 0.18515509006E+02
 0.19548000529E+02 0.20392572449E+02 0.20751159539E+02 0.20242519607E+02 0.18656809055E+02
 0.16104454629E+02 0.13075265299E+02 0.10344969284E+02 0.87212201165E+01 0.87212322358E+01
 0.10345000116E+02 0.15958786697E+02 0.18009333330E+02 0.19460636007E+02 0.20114072236E+02
 0.20054040371E+02 0.19547981085E+02 0.18829386168E+02 0.17997531192E+02 0.17115326172E+02
 0.16222833206E+02 0.15348506254E+02 0.14521455117E+02 0.13781646289E+02 0.13183814097E+02
 0.12789995737E+02 0.12651725150E+02 0.12789985470E+02 0.13183790998E+02 0.13781618132E+02
 0.14521437870E+02 0.15348505055E+02 0.16222837572E+02 0.17115328372E+02 0.17997537340E+02
 0.18829403004E+02 0.19548003325E+02 0.20054059923E+02 0.20114089682E+02 0.19460650545E+02
 0.18009328259E+02 0.15958742459E+02 0.13788867183E+02 0.12125136054E+02 0.11500663943E+02
 0.12125194922E+02 0.13788941185E+02 0.17037246435E+02 0.18226594640E+02 0.18909047294E+02
 0.19080501706E+02 0.18900833683E+02 0.18515494622E+02 0.17997531192E+02 0.17396440242E+02
 0.16740142388E+02 0.16043747453E+02 0.15323070197E+02 0.14609429666E+02 0.13957709601E+02
 0.13443288990E+02 0.13155205536E+02 0.13155209953E+02 0.13443290030E+02 0.13957691835E+02
 0.14609402402E+02 0.15323055590E+02 0.16043748943E+02 0.16740144235E+02 0.17396435193E+02
 0.17997529467E+02 0.18515503499E+02 0.18900845459E+02 0.19080508454E+02 0.18909053710E+02
 0.18226606280E+02 0.17037254867E+02 0.15563368502E+02 0.14201411959E+02 0.13380771608E+02
 0.13380782016E+02 0.14201431199E+02 0.15563376026E+02 0.16627532640E+02 0.17259093759E+02
 0.17588951207E+02 0.17686423026E+02 0.17611743236E+02 0.17410515459E+02 0.17115326172E+02
 0.16740142388E+02 0.16284724626E+02 0.15746740891E+02 0.15139069625E+02 0.14497014258E+02
 0.13896178499E+02 0.13458336884E+02 0.13297003228E+02 0.13458362587E+02 0.13896193361E+02
 0.14496996642E+02 0.15139040344E+02 0.15746730817E+02 0.16284734648E+02 0.16740150846E+02
 0.17115323536E+02 0.17410512760E+02 0.17611748629E+02 0.17686426480E+02 0.17588939044E+02
 0.17259071364E+02 0.16627524946E+02 0.15741677716E+02 0.14793501853E+02 0.14058854640E+02
 0.13781546756E+02 0.14058811641E+02 0.14793448820E+02 0.15741650571E+02 0.15321313264E+02
 0.15746741453E+02 0.16043748254E+02 0.16222834243E+02 0.16304970383E+02 0.16304969858E+02
 0.16222833206E+02 0.16043747453E+02 0.15746740891E+02 0.15321312830E+02 0.14772279660E+02
 0.14154415228E+02 0.13600925443E+02 0.13270597248E+02 0.13270621713E+02 0.13600970216E+02
 0.14154429732E+02 0.14772250982E+02 0.15321274966E+02 0.15746729366E+02 0.16043761873E+02
 0.16222849130E+02 0.16304974704E+02 0.16304974937E+02 0.16222849429E+02 0.16043761839E+02
 0.15746729390E+02 0.15321275411E+02 0.14772251371E+02 0.14154429549E+02 0.13600969750E+02
 0.13270621307E+02 0.13270596550E+02 0.13600924238E+02 0.14154414201E+02 0.14772279490E+02
 0.13727353014E+02 0.14139215469E+02 0.14496875364E+02 0.14802828193E+02 0.15056999970E+02
 0.15247684926E+02 0.15348506254E+02 0.15323070197E+02 0.15139069625E+02 0.14772279660E+02
 0.14237309127E+02 0.13648480873E+02 0.13184694105E+02 0.13008340605E+02 0.13184741294E+02
 0.13648530300E+02 0.14237316262E+02 0.14772242083E+02 0.15139023507E+02 0.15323050626E+02
 0.15348515395E+02 0.15247699136E+02 0.15057003749E+02 0.14802833029E+02 0.14496899216E+02
 0.14139249982E+02 0.13727366172E+02 0.13269619184E+02 0.12798446771E+02 0.12372559731E+02
 0.12067678137E+02 0.11956064482E+02 0.12067686515E+02 0.12372588360E+02 0.12798489127E+02
 0.13269644060E+02 0.12136517192E+02 0.12596585475E+02 0.13054867054E+02 0.13502404379E+02
 0.13920340040E+02 0.14275441445E+02 0.14521455117E+02 0.14609429666E+02 0.14497014258E+02
 0.14154415228E+02 0.13648480873E+02 0.13142147535E+02 0.12825564029E+02 0.12825587863E+02
 0.13142202435E+02 0.13648528817E+02 0.14154424244E+02 0.14496982252E+02 0.14609385166E+02
 0.14521431044E+02 0.14275444137E+02 0.13920346977E+02 0.13502396054E+02 0.13054854677E+02
 0.12596596846E+02 0.12136557368E+02 0.11681719825E+02 0.11246493939E+02 0.10859559681E+02
 0.10562880156E+02 0.10400326260E+02 0.10400344302E+02 0.10562921296E+02 0.10859592032E+02
 0.11246489370E+02 0.11681680721E+02 0.10673647548E+02 0.11214305527E+02 0.11786814810E+02
 0.12371073037E+02 0.12932753304E+02 0.13422354628E+02 0.13781646289E+02 0.13957709601E+02
 0.13896178499E+02 0.13600925443E+02 0.13184694105E+02 0.12825564029E+02 0.12684378522E+02
 0.12825593737E+02 0.13184741610E+02 0.13600968455E+02 0.13896193949E+02 0.13957691095E+02
 0.13781613327E+02 0.13422336768E+02 0.12932759567E+02 0.12371081771E+02 0.11786800729E+02
 0.11214273254E+02 0.10673628804E+02 0.10175749366E+02 0.97289699691E+01 0.93454586830E+01
 0.90444856434E+01 0.88499480657E+01 0.87823856958E+01 0.88499556283E+01 0.90444810729E+01
 0.93454291245E+01 0.97289309244E+01 0.10175732682E+02 0.94149464777E+01 0.10047285339E+02
 0.10732097317E+02 0.11439767830E+02 0.12124195686E+02 0.12725936460E+02 0.13183814097E+02
 0.13443288990E+02 0.13458336884E+02 0.13270597248E+02 0.13008340605E+02 0.12825587863E+02
 0.12825593737E+02 0.13008358500E+02 0.13270624987E+02 0.13458364751E+02 0.13443301629E+02
 0.13183803456E+02 0.12725914154E+02 0.12124186217E+02 0.11439783355E+02 0.10732121354E+02
 0.10047288100E+02 0.94149173536E+01 0.88508370913E+01 0.83624307299E+01 0.79544586526E+01
 0.76335592284E+01 0.74097459578E+01 0.72941086729E+01 0.72940975833E+01 0.74097170350E+01
 0.76335272300E+01 0.79544457681E+01 0.83624503390E+01 0.88508770872E+01 0.83952420846E+01
 0.91192969450E+01 0.99089977155E+01 0.10727376422E+02 0.11521099584E+02 0.12227714330E+02
 0.12789995737E+02 0.13155205536E+02 0.13297003228E+02 0.13270621713E+02 0.13184741294E+02
 0.13142202435E+02 0.13184741610E+02 0.13270624987E+02 0.13297011646E+02 0.13155216267E+02
 0.12789999824E+02 0.12227703725E+02 0.11521078412E+02 0.10727363168E+02 0.99090102472E+01
 0.91193321524E+01 0.83952734647E+01 0.77571960708E+01 0.72130785359E+01 0.67642591845E+01
 0.64105673102E+01 0.61534646688E+01 0.59965297823E+01 0.59436493763E+01 0.59965135684E+01
 0.61534541967E+01 0.64105831999E+01 0.67642971905E+01 0.72131103957E+01 0.77571956353E+01
 0.76208633047E+01 0.84339715349E+01 0.93227715557E+01 0.10245781634E+02 0.11147197163E+02
 0.11966500669E+02 0.12651725150E+02 0.13155209953E+02 0.13458362587E+02 0.13600970216E+02
 0.13648530300E+02 0.13648528817E+02 0.13600968455E+02 0.13458364751E+02 0.13155216267E+02
 0.12651731971E+02 0.11966502877E+02 0.11147188700E+02 0.10245759427E+02 0.93227445351E+01
 0.84339610224E+01 0.76208845340E+01 0.69074943643E+01 0.63027246431E+01 0.58059336796E+01
 0.54126677478E+01 0.51188527530E+01 0.49226542353E+01 0.48242117173E+01 0.48242136665E+01
 0.49226655962E+01 0.51188780824E+01 0.54126934912E+01 0.58059351653E+01 0.63026936365E+01
 0.69074524909E+01 0.70828378320E+01 0.79847818215E+01 0.89725164491E+01 0.10002834059E+02
 0.11020300438E+02 0.11966493181E+02 0.12789985470E+02 0.13443290030E+02 0.13896193361E+02
 0.14154429732E+02 0.14237316262E+02 0.14154424244E+02 0.13896193949E+02 0.13443301629E+02
 0.12789999824E+02 0.11966502877E+02 0.11020307553E+02 0.10002838629E+02 0.89725075340E+01
 0.79847521058E+01 0.70828022751E+01 0.62928793840E+01 0.56248198017E+01 0.50766952892E+01
 0.46408336618E+01 0.43088883132E+01 0.40747104480E+01 0.39349964801E+01 0.38885136294E+01
 0.39350088439E+01 0.40747249152E+01 0.43088882926E+01 0.46408094979E+01 0.50766587044E+01
 0.56247990324E+01 0.62928925562E+01 0.67674673351E+01 0.77629952653E+01 0.88560746318E+01
 0.10002830784E+02 0.11147186483E+02 0.12227693953E+02 0.13183790998E+02 0.13957691835E+02
 0.14496996642E+02 0.14772250982E+02 0.14772242083E+02 0.14496982252E+02 0.13957691095E+02
 0.13183803456E+02 0.12227703725E+02 0.11147188700E+02 0.10002838629E+02 0.88560959963E+01
 0.77630144178E+01 0.67674602402E+01 0.58966444796E+01 0.51608854771E+01 0.45573549276E+01
 0.40758836607E+01 0.37045122455E+01 0.34331906176E+01 0.32552113617E+01 0.31669542699E+01
 0.31669566569E+01 0.32552112637E+01 0.34331764166E+01 0.37044865118E+01 0.40758671359E+01
 0.45573677078E+01 0.51609237248E+01 0.58966800153E+01 0.66637188592E+01 0.77629938590E+01
 0.89725121994E+01 0.10245772951E+02 0.11521083413E+02 0.12725911948E+02 0.13781618132E+02
 0.14609402402E+02 0.15139040344E+02 0.15321274966E+02 0.15139023507E+02 0.14609385166E+02
 0.13781613327E+02 0.12725914154E+02 0.11521078412E+02 0.10245759427E+02 0.89725075340E+01
 0.77630144178E+01 0.66637570078E+01 0.57031436459E+01 0.48917442237E+01 0.42259071112E+01
 0.36934377930E+01 0.32793281257E+01 0.29699548270E+01 0.27551503263E+01 0.26284831830E+01
 0.25865991960E+01 0.26284783254E+01 0.27551392358E+01 0.29699452899E+01 0.32793360127E+01
 0.36934677933E+01 0.42259397036E+01 0.48917510058E+01 0.57031169301E+01 0.67674667373E+01
 0.79847785417E+01 0.93227651206E+01 0.10727367987E+02 0.12124184943E+02 0.13422339907E+02
 0.14521437870E+02 0.15323055590E+02 0.15746730817E+02 0.15746729366E+02 0.15323050626E+02
 0.14521431044E+02 0.13422336768E+02 0.12124186217E+02 0.10727363168E+02 0.93227445351E+01
 0.79847521058E+01 0.67674602402E+01 0.57031436459E+01 0.48036829498E+01 0.40649193029E+01
 0.34728327554E+01 0.30096813194E+01 0.26585821457E+01 0.24059852437E+01 0.22423687305E+01
 0.21619148737E+01 0.21619128974E+01 0.22423657387E+01 0.24059891495E+01 0.26585990250E+01
 0.30097035693E+01 0.34728388812E+01 0.40648948798E+01 0.48036413791E+01 0.57031170609E+01
 0.70828384552E+01 0.84339698310E+01 0.99089950173E+01 0.11439768131E+02 0.12932756884E+02
 0.14275443543E+02 0.15348505055E+02 0.16043748943E+02 0.16284734648E+02 0.16043761873E+02
 0.15348515395E+02 0.14275444137E+02 0.12932759567E+02 0.11439783355E+02 0.99090102472E+01
 0.84339610224E+01 0.70828022751E+01 0.58966444796E+01 0.48917442237E+01 0.40649193029E+01
 0.34008124890E+01 0.28790293964E+01 0.24794708520E+01 0.21852515449E+01 0.19836529796E+01
 0.18660168033E+01 0.18273480214E+01 0.18660174180E+01 0.19836583498E+01 0.21852614239E+01
 0.24794746741E+01 0.28790142749E+01 0.34007808232E+01 0.40648945855E+01 0.48917511145E+01
 0.58966810071E+01 0.76208668352E+01 0.91192999750E+01 0.10732101593E+02 0.12371082656E+02
 0.13920354315E+02 0.15247696699E+02 0.16222837572E+02 0.16740144235E+02 0.16740150846E+02
 0.16222849130E+02 0.15247699136E+02 0.13920346977E+02 0.12371081771E+02 0.10732121354E+02
 0.91193321524E+01 0.76208845340E+01 0.62928793840E+01 0.51608854771E+01 0.42259071112E+01
 0.34728327554E+01 0.28790293964E+01 0.24210336817E+01 0.20783912924E+01 0.18350133379E+01
 0.16791714038E+01 0.16031692543E+01 0.16031698844E+01 0.16791733982E+01 0.18350140504E+01
 0.20783839301E+01 0.24210160173E+01 0.28790134661E+01 0.34728380925E+01 0.42259391598E+01
 0.51609240517E+01 0.62928948832E+01 0.83952468764E+01 0.10047289853E+02 0.11786819205E+02
 0.13502412281E+02 0.15057012263E+02 0.16304980646E+02 0.17115328372E+02 0.17396435193E+02
 0.17115323536E+02 0.16304974704E+02 0.15057003749E+02 0.13502396054E+02 0.11786800729E+02
 0.10047288100E+02 0.83952734647E+01 0.69074943643E+01 0.56248198017E+01 0.45573549276E+01
 0.36934377930E+01 0.30096813194E+01 0.24794708520E+01 0.20783912924E+01 0.17865349645E+01
 0.15887883757E+01 0.14744600786E+01 0.14370785669E+01 0.14744607832E+01 0.15887868978E+01
 0.17865284277E+01 0.20783832447E+01 0.24794732223E+01 0.30097027065E+01 0.36934676185E+01
 0.45573669733E+01 0.56247986391E+01 0.69074548765E+01 0.94149486558E+01 0.11214305332E+02
 0.13054863605E+02 0.14802825951E+02 0.16304974636E+02 0.17410524841E+02 0.17997537340E+02
 0.17997529467E+02 0.17410512760E+02 0.16304974937E+02 0.14802833029E+02 0.13054854677E+02
 0.11214273254E+02 0.94149173536E+01 0.77571960708E+01 0.63027246431E+01 0.50766952892E+01
 0.40758836607E+01 0.32793281257E+01 0.26585821457E+01 0.21852515449E+01 0.18350133379E+01
 0.15887883757E+01 0.14325125731E+01 0.13567683291E+01 0.13567688100E+01 0.14325126228E+01
 0.15887868285E+01 0.18350139119E+01 0.21852606634E+01 0.26585986515E+01 0.32793371253E+01
 0.40758679613E+01 0.50766573213E+01 0.63026919015E+01 0.77571963960E+01 0.10673648002E+02
 0.12596584170E+02 0.14496870350E+02 0.16222828836E+02 0.17611746020E+02 0.18515509006E+02
 0.18829403004E+02 0.18515503499E+02 0.17611748629E+02 0.16222849429E+02 0.14496899216E+02
 0.12596596846E+02 0.10673628804E+02 0.88508370913E+01 0.72130785359E+01 0.58059336796E+01
 0.46408336618E+01 0.37045122455E+01 0.29699548270E+01 0.24059852437E+01 0.19836529796E+01
 0.16791714038E+01 0.14744600786E+01 0.13567683291E+01 0.13184018268E+01 0.13567685455E+01
 0.14744602919E+01 0.16791736403E+01 0.19836589102E+01 0.24059894908E+01 0.29699464545E+01
 0.37044885653E+01 0.46408103875E+01 0.58059340481E+01 0.72131089531E+01 0.88508768622E+01
 0.12136522879E+02 0.14139224972E+02 0.16043755488E+02 0.17686426646E+02 0.18900842123E+02
 0.19548000529E+02 0.19548003325E+02 0.18900845459E+02 0.17686426480E+02 0.16043761839E+02
 0.14139249982E+02 0.12136557368E+02 0.10175749366E+02 0.83624307299E+01 0.67642591845E+01
 0.54126677478E+01 0.43088883132E+01 0.34331906176E+01 0.27551503263E+01 0.22423687305E+01
 0.18660168033E+01 0.16031692543E+01 0.14370785669E+01 0.13567688100E+01 0.13567685455E+01
 0.14370780663E+01 0.16031695579E+01 0.18660178726E+01 0.22423662613E+01 0.27551393392E+01
 0.34331764582E+01 0.43088886554E+01 0.54126943259E+01 0.67642979926E+01 0.83624503939E+01
 0.10175733750E+02 0.13727364453E+02 0.15746760051E+02 0.17588968329E+02 0.19080512385E+02
 0.20054049720E+02 0.20392572449E+02 0.20054059923E+02 0.19080508454E+02 0.17588939044E+02
 0.15746729390E+02 0.13727366172E+02 0.11681719825E+02 0.97289699691E+01 0.79544586526E+01
 0.64105673102E+01 0.51188527530E+01 0.40747104480E+01 0.32552113617E+01 0.26284831830E+01
 0.21619148737E+01 0.18273480214E+01 0.16031698844E+01 0.14744607832E+01 0.14325126228E+01
 0.14744602919E+01 0.16031695579E+01 0.18273475569E+01 0.21619123457E+01 0.26284783148E+01
 0.32552101654E+01 0.40747222284E+01 0.51188768962E+01 0.64105849404E+01 0.79544469064E+01
 0.97289297907E+01 0.11681682833E+02 0.15321314636E+02 0.17259098467E+02 0.18909054732E+02
 0.20114074941E+02 0.20751150974E+02 0.20751159539E+02 0.20114089682E+02 0.18909053710E+02
 0.17259071364E+02 0.15321275411E+02 0.13269619184E+02 0.11246493939E+02 0.93454586830E+01
 0.76335592284E+01 0.61534646688E+01 0.49226542353E+01 0.39349964801E+01 0.31669542699E+01
 0.25865991960E+01 0.21619128974E+01 0.18660174180E+01 0.16791733982E+01 0.15887868978E+01
 0.15887868285E+01 0.16791736403E+01 0.18660178726E+01 0.21619123457E+01 0.25865987647E+01
 0.31669587533E+01 0.39350074108E+01 0.49226623145E+01 0.61534553069E+01 0.76335296139E+01
 0.93454267203E+01 0.11246485146E+02 0.13269642788E+02 0.16627506713E+02 0.18226572060E+02
 0.19460627268E+02 0.20242512574E+02 0.20510759642E+02 0.20242519607E+02 0.19460650545E+02
 0.18226606280E+02 0.16627524946E+02 0.14772251371E+02 0.12798446771E+02 0.10859559681E+02
 0.90444856434E+01 0.74097459578E+01 0.59965297823E+01 0.48242117173E+01 0.38885136294E+01
 0.31669566569E+01 0.26284783254E+01 0.22423657387E+01 0.19836583498E+01 0.18350140504E+01
 0.17865284277E+01 0.18350139119E+01 0.19836589102E+01 0.22423662613E+01 0.26284783148E+01
 0.31669587533E+01 0.38885184341E+01 0.48242108651E+01 0.59965140354E+01 0.74097234737E+01
 0.90444816226E+01 0.10859588164E+02 0.12798488236E+02 0.14772269795E+02 0.17037202289E+02
 0.18009309924E+02 0.18656823680E+02 0.18981445433E+02 0.18981433450E+02 0.18656809055E+02
 0.18009328259E+02 0.17037254867E+02 0.15741677716E+02 0.14154429549E+02 0.12372559731E+02
 0.10562880156E+02 0.88499480657E+01 0.72941086729E+01 0.59436493763E+01 0.48242136665E+01
 0.39350088439E+01 0.32552112637E+01 0.27551392358E+01 0.24059891495E+01 0.21852614239E+01
 0.20783839301E+01 0.20783832447E+01 0.21852606634E+01 0.24059894908E+01 0.27551393392E+01
 0.32552101654E+01 0.39350074108E+01 0.48242108651E+01 0.59436432836E+01 0.72941057858E+01
 0.88499634059E+01 0.10562917017E+02 0.12372593109E+02 0.14154424732E+02 0.15741630493E+02
 0.15958760720E+02 0.16104500943E+02 0.16131975766E+02 0.16130908290E+02 0.16131937259E+02
 0.16104454629E+02 0.15958742459E+02 0.15563368502E+02 0.14793501853E+02 0.13600969750E+02
 0.12067678137E+02 0.10400326260E+02 0.87823856958E+01 0.72940975833E+01 0.59965135684E+01
 0.49226655962E+01 0.40747249152E+01 0.34331764166E+01 0.29699452899E+01 0.26585990250E+01
 0.24794746741E+01 0.24210160173E+01 0.24794732223E+01 0.26585986515E+01 0.29699464545E+01
 0.34331764582E+01 0.40747222284E+01 0.49226623145E+01 0.59965140354E+01 0.72941057858E+01
 0.87824017427E+01 0.10400341403E+02 0.12067676250E+02 0.13600941985E+02 0.14793462046E+02
 0.15563347446E+02 0.13075321139E+02 0.12373844644E+02 0.11949637127E+02 0.11949623447E+02
 0.12373804592E+02 0.13075265299E+02 0.13788867183E+02 0.14201411959E+02 0.14058854640E+02
 0.13270621307E+02 0.11956064482E+02 0.10400344302E+02 0.88499556283E+01 0.74097170350E+01
 0.61534541967E+01 0.51188780824E+01 0.43088882926E+01 0.37044865118E+01 0.32793360127E+01
 0.30097035693E+01 0.28790142749E+01 0.28790134661E+01 0.30097027065E+01 0.32793371253E+01
 0.37044885653E+01 0.43088886554E+01 0.51188768962E+01 0.61534553069E+01 0.74097234737E+01
 0.88499634059E+01 0.10400341403E+02 0.11956040624E+02 0.13270583118E+02 0.14058828034E+02
 0.14201421719E+02 0.13788912677E+02 0.85378249483E+01 0.72084721260E+01 0.67215115292E+01
 0.72084653579E+01 0.85378087808E+01 0.10344969284E+02 0.12125136054E+02 0.13380771608E+02
 0.13781546756E+02 0.13270596550E+02 0.12067686515E+02 0.10562921296E+02 0.90444810729E+01
 0.76335272300E+01 0.64105831999E+01 0.54126934912E+01 0.46408094979E+01 0.40758671359E+01
 0.36934677933E+01 0.34728388812E+01 0.34007808232E+01 0.34728380925E+01 0.36934676185E+01
 0.40758679613E+01 0.46408103875E+01 0.54126943259E+01 0.64105849404E+01 0.76335296139E+01
 0.90444816226E+01 0.10562917017E+02 0.12067676250E+02 0.13270583118E+02 0.13781537798E+02
 0.13380775523E+02 0.12125153812E+02 0.10344991703E+02 0.30425877892E+01 0.15464759623E+01
 0.15464601260E+01 0.30425599029E+01 0.56534708465E+01 0.87212201165E+01 0.11500663943E+02
 0.13380782016E+02 0.14058811641E+02 0.13600924238E+02 0.12372588360E+02 0.10859592032E+02
 0.93454291245E+01 0.79544457681E+01 0.67642971905E+01 0.58059351653E+01 0.50766587044E+01
 0.45573677078E+01 0.42259397036E+01 0.40648948798E+01 0.40648945855E+01 0.42259391598E+01
 0.45573669733E+01 0.50766573213E+01 0.58059340481E+01 0.67642979926E+01 0.79544469064E+01
 0.93454267203E+01 0.10859588164E+02 0.12372593109E+02 0.13600941985E+02 0.14058828034E+02
 0.13380775523E+02 0.11500634046E+02 0.87211946169E+01 0.56534760589E+01 -.22755672207E+01
 -.33223284765E+01 -.22756413303E+01 0.59794002213E+00 0.45802184307E+01 0.87212322358E+01
 0.12125194922E+02 0.14201431199E+02 0.14793448820E+02 0.14154414201E+02 0.12798489127E+02
 0.11246489370E+02 0.97289309244E+01 0.83624503390E+01 0.72131103957E+01 0.63026936365E+01
 0.56247990324E+01 0.51609237248E+01 0.48917510058E+01 0.48036413791E+01 0.48917511145E+01
 0.51609240517E+01 0.56247986391E+01 0.63026919015E+01 0.72131089531E+01 0.83624503939E+01
 0.97289297907E+01 0.11246485146E+02 0.12798488236E+02 0.14154424732E+02 0.14793462046E+02
 0.14201421719E+02 0.12125153812E+02 0.87211946169E+01 0.45802361901E+01 0.59801773843E+00
 -.61441147864E+01 -.61441543121E+01 -.36858624176E+01 0.59793562152E+00 0.56534403357E+01
 0.10345000116E+02 0.13788941185E+02 0.15563376026E+02 0.15741650571E+02 0.14772279490E+02
 0.13269644060E+02 0.11681680721E+02 0.10175732682E+02 0.88508770872E+01 0.77571956353E+01
 0.69074524909E+01 0.62928925562E+01 0.58966800153E+01 0.57031169301E+01 0.57031170609E+01
 0.58966810071E+01 0.62928948832E+01 0.69074548765E+01 0.77571963960E+01 0.88508768622E+01
 0.10175733750E+02 0.11681682833E+02 0.13269642788E+02 0.14772269795E+02 0.15741630493E+02
 0.15563347446E+02 0.13788912677E+02 0.10344991703E+02 0.56534760589E+01 0.59801773843E+00
 -.36857723489E+01 -.61441043551E+01 -.33222294659E+01 0.15465316835E+01 0.72084501437E+01
 0.12373793829E+02 0.16104484332E+02 0.18009334069E+02 0.18226596040E+02 0.17259094564E+02
 0.15746741222E+02 0.14139215006E+02 0.12596585099E+02 0.11214304656E+02 0.10047284082E+02
 0.91192963338E+01 0.84339717690E+01 0.79847819656E+01 0.77629950326E+01 0.77629939979E+01
 0.79847791451E+01 0.84339700104E+01 0.91192995689E+01 0.10047289738E+02 0.11214305685E+02
 0.12596584137E+02 0.14139224390E+02 0.15746759790E+02 0.17259098721E+02 0.18226572034E+02
 0.18009309548E+02 0.16104501179E+02 0.12373845704E+02 0.72084730934E+01 0.15464764918E+01
 -.33223277934E+01 -.61441535722E+01 -.33222294659E+01 0.68559272055E+00 0.61172221703E+01
 0.11616641285E+02 0.16038259010E+02 0.18743017104E+02 0.19659516293E+02 0.19159835981E+02
 0.17845515141E+02 0.16284724042E+02 0.14718548385E+02 0.13255914835E+02 0.11967785854E+02
 0.10895042179E+02 0.10057082631E+02 0.94598847358E+01 0.91029363288E+01 0.89842488844E+01
 0.91029316468E+01 0.94598752920E+01 0.10057074801E+02 0.10895042524E+02 0.11967788650E+02
 0.13255910174E+02 0.14718542868E+02 0.16284735651E+02 0.17845543415E+02 0.19159857437E+02
 0.19659520189E+02 0.18743024962E+02 0.16038286689E+02 0.11616655213E+02 0.61171667834E+01
 0.68546955230E+00 -.33223361388E+01 -.48005362336E+01 0.15465316835E+01 0.61172221703E+01
 0.11334397274E+02 0.15966434893E+02 0.19176254925E+02 0.20676917791E+02 0.20671201208E+02
 0.19665777972E+02 0.18243100579E+02 0.16740142115E+02 0.15277338420E+02 0.13933779028E+02
 0.12761725678E+02 0.11794622748E+02 0.11053489958E+02 0.10551833846E+02 0.10298586532E+02
 0.10298586221E+02 0.10551828895E+02 0.11053478316E+02 0.11794613596E+02 0.12761725985E+02
 0.13933779368E+02 0.15277326888E+02 0.16740127178E+02 0.18243104122E+02 0.19665806038E+02
 0.20671235769E+02 0.20676939410E+02 0.19176260113E+02 0.15966426283E+02 0.11334370454E+02
 0.61171750511E+01 0.15464817466E+01 -.11323789382E+01 -.11323570378E+01 0.72084501437E+01
 0.11616641285E+02 0.15966434893E+02 0.19319931792E+02 0.21207018173E+02 0.21647185976E+02
 0.21013015163E+02 0.19828627072E+02 0.18484029258E+02 0.17115326812E+02 0.15802685707E+02
 0.14601831096E+02 0.13554016839E+02 0.12692992037E+02 0.12048954615E+02 0.11648933273E+02
 0.11513055698E+02 0.11648936641E+02 0.12048951553E+02 0.12692981566E+02 0.13554011054E+02
 0.14601835907E+02 0.15802689208E+02 0.17115315814E+02 0.18484010684E+02 0.19828622682E+02
 0.21013034944E+02 0.21647213078E+02 0.21207024331E+02 0.19319908438E+02 0.15966406764E+02
 0.11616643452E+02 0.72084882366E+01 0.39043624924E+01 0.26763667042E+01 0.39043235369E+01
 0.12373793829E+02 0.16038259010E+02 0.19176254925E+02 0.21207018173E+02 0.21985035717E+02
 0.21730614746E+02 0.20865911600E+02 0.19772229585E+02 0.18595040825E+02 0.17410515765E+02
 0.16270392497E+02 0.15214885370E+02 0.14282920885E+02 0.13518188950E+02 0.12969066699E+02
 0.12680538828E+02 0.12680542925E+02 0.12969071275E+02 0.13518183057E+02 0.14282908055E+02
 0.15214879741E+02 0.16270399263E+02 0.17410524175E+02 0.18595038926E+02 0.19772220681E+02
 0.20865911204E+02 0.21730630327E+02 0.21985052734E+02 0.21207013182E+02 0.19176226416E+02
 0.16038237443E+02 0.12373809088E+02 0.90948303913E+01 0.71508608946E+01 0.71508387642E+01
 0.90947893845E+01 0.16104484332E+02 0.18743017104E+02 0.20676917791E+02 0.21647185976E+02
 0.21730614746E+02 0.21227324204E+02 0.20458071375E+02 0.19557936710E+02 0.18595040410E+02
 0.17611742601E+02 0.16638697527E+02 0.15709304748E+02 0.14871096742E+02 0.14188335397E+02
 0.13733587943E+02 0.13572932772E+02 0.13733597563E+02 0.14188339199E+02 0.14871084726E+02
 0.15709284811E+02 0.16638684576E+02 0.17611741961E+02 0.18595045954E+02 0.19557941381E+02
 0.20458075745E+02 0.21227335323E+02 0.21730636660E+02 0.21647210326E+02 0.20676926598E+02
 0.18742999144E+02 0.16104447502E+02 0.13354960656E+02 0.11261763922E+02 0.10478298170E+02
 0.11261784217E+02 0.13354996629E+02 0.18009334069E+02 0.19659516293E+02 0.20671201208E+02
 0.21013015163E+02 0.20865911600E+02 0.20458071375E+02 0.19892353142E+02 0.19224442081E+02
 0.18484029337E+02 0.17686422703E+02 0.16849367380E+02 0.16008642527E+02 0.15220931974E+02
 0.14587407730E+02 0.14229389071E+02 0.14229402122E+02 0.14587431944E+02 0.15220941016E+02
 0.16008628347E+02 0.16849343139E+02 0.17686402652E+02 0.18484016876E+02 0.19224435366E+02
 0.19892351968E+02 0.20458076931E+02 0.20865925710E+02 0.21013039743E+02 0.20671232087E+02
 0.19659537513E+02 0.18009326575E+02 0.16021110025E+02 0.14208905345E+02 0.13123950600E+02
 0.13123971118E+02 0.14208951409E+02 0.16021148485E+02 0.18226596040E+02 0.19159835981E+02
 0.19665777972E+02 0.19828627072E+02 0.19772229585E+02 0.19557936710E+02 0.19224442081E+02
 0.18786908972E+02 0.18243102277E+02 0.17588951823E+02 0.16829461561E+02 0.15993832030E+02
 0.15196225182E+02 0.14610437416E+02 0.14394025497E+02 0.14610477860E+02 0.15196268808E+02
 0.15993846576E+02 0.16829448713E+02 0.17588932011E+02 0.18243086083E+02 0.18786893406E+02
 0.19224425475E+02 0.19557924358E+02 0.19772225981E+02 0.19828631120E+02 0.19665786994E+02
 0.19159849518E+02 0.18226614279E+02 0.16954570864E+02 0.15616948899E+02 0.14590803187E+02
 0.14205188859E+02 0.14590791811E+02 0.15616929989E+02 0.16954549964E+02 0.17259094564E+02
 0.17845515141E+02 0.18243100579E+02 0.18484029258E+02 0.18595040825E+02 0.18595040410E+02
 0.18484029337E+02 0.18243102277E+02 0.17845516616E+02 0.17259094083E+02 0.16468092259E+02
 0.15569224582E+02 0.14764977118E+02 0.14286175035E+02 0.14286203602E+02 0.14765037790E+02
 0.15569269600E+02 0.16468099261E+02 0.17259079045E+02 0.17845504648E+02 0.18243098881E+02
 0.18484023718E+02 0.18595027115E+02 0.18595027831E+02 0.18484024405E+02 0.18243098071E+02
 0.17845503793E+02 0.17259079621E+02 0.16468099871E+02 0.15569268884E+02 0.14765037312E+02
 0.14286204880E+02 0.14286176576E+02 0.14764977299E+02 0.15569224600E+02 0.16468093307E+02
 0.15746741222E+02 0.16284724042E+02 0.16740142115E+02 0.17115326812E+02 0.17410515765E+02
 0.17611742601E+02 0.17686422703E+02 0.17588951823E+02 0.17259094083E+02 0.16627532061E+02