   2   2   0   0
  0.2044598E+02  0.3867090E-09  0.3867090E-09  0.3867090E-09  0.5000000E-15
  1.000000000000000E-004
  CAR 
 Si                                      
     62.38075770     -9.46340424  301      5.89328537      1.00000000
     -9.463  0.0000E+00  0.0000E+00
     -9.224  0.0000E+00  0.0000E+00
     -8.984  0.0000E+00  0.0000E+00
     -8.745  0.0000E+00  0.0000E+00
     -8.505  0.0000E+00  0.0000E+00
     -8.266  0.0000E+00  0.0000E+00
     -8.027  0.0000E+00  0.0000E+00
     -7.787  0.0000E+00  0.0000E+00
     -7.548  0.0000E+00  0.0000E+00
     -7.308  0.0000E+00  0.0000E+00
     -7.069  0.0000E+00  0.0000E+00
     -6.829  0.0000E+00  0.0000E+00
     -6.590  0.0000E+00  0.0000E+00
     -6.350  0.1329E-06  0.3182E-07
     -6.111  0.1629E-01  0.3900E-02
     -5.871  0.2236E+00  0.5744E-01
     -5.632  0.1697E+00  0.9808E-01
     -5.392  0.5107E+00  0.2204E+00
     -5.153  0.7243E-01  0.2377E+00
     -4.913  0.5494E+00  0.3693E+00
     -4.674  0.4846E+00  0.4854E+00
     -4.434  0.5531E+00  0.6178E+00
     -4.195  0.2720E+00  0.6830E+00
     -3.955  0.1263E+01  0.9855E+00
     -3.716  0.5809E+00  0.1125E+01
     -3.476  0.7502E+00  0.1304E+01
     -3.237  0.8015E+00  0.1496E+01
     -2.997  0.4679E+00  0.1608E+01
     -2.758  0.1004E+01  0.1849E+01
     -2.518  0.2429E+00  0.1907E+01
     -2.279  0.4605E-01  0.1918E+01
     -2.040  0.3674E+00  0.2006E+01
     -1.800  0.3177E+00  0.2082E+01
     -1.561  0.6830E-01  0.2098E+01
     -1.321  0.1597E+00  0.2137E+01
     -1.082  0.1486E+01  0.2492E+01
     -0.842  0.1269E+01  0.2796E+01
     -0.603  0.7956E+00  0.2987E+01
     -0.363  0.3290E-01  0.2995E+01
     -0.124  0.1227E+01  0.3288E+01
      0.116  0.1572E+00  0.3326E+01
      0.355  0.2532E+00  0.3387E+01
      0.595  0.3267E+00  0.3465E+01
      0.834  0.3910E+00  0.3559E+01
      1.074  0.3358E+00  0.3639E+01
      1.313  0.1170E+00  0.3667E+01
      1.553  0.9078E+00  0.3884E+01
      1.792  0.1313E+01  0.4199E+01
      2.032  0.3944E+00  0.4293E+01
      2.271  0.1270E+01  0.4598E+01
      2.511  0.1957E+01  0.5066E+01
      2.750  0.5966E+00  0.5209E+01
      2.990  0.1479E+01  0.5563E+01
      3.229  0.1547E+01  0.5934E+01
      3.469  0.1527E+01  0.6299E+01
      3.708  0.8622E+00  0.6506E+01
      3.948  0.1529E+01  0.6872E+01
      4.187  0.1182E+01  0.7155E+01
      4.426  0.1735E+01  0.7571E+01
      4.666  0.4389E+00  0.7676E+01
      4.905  0.7667E+00  0.7859E+01
      5.145  0.8162E-01  0.7879E+01
      5.384  0.4241E+00  0.7980E+01
      5.624  0.6032E-01  0.7995E+01
      5.863  0.2122E-01  0.8000E+01
      6.103  0.1160E-06  0.8000E+01
      6.342  0.1161E+00  0.8028E+01
      6.582  0.3970E+00  0.8123E+01
      6.821  0.1991E+00  0.8171E+01
      7.061  0.5681E+00  0.8307E+01
      7.300  0.6760E+00  0.8468E+01
      7.540  0.4821E+00  0.8584E+01
      7.779  0.1763E+01  0.9006E+01
      8.019  0.1614E+01  0.9393E+01
      8.258  0.1284E+01  0.9700E+01
      8.498  0.1399E+01  0.1004E+02
      8.737  0.1792E+01  0.1046E+02
      8.977  0.7017E+00  0.1063E+02
      9.216  0.2220E+01  0.1116E+02
      9.456  0.1839E+01  0.1160E+02
      9.695  0.8092E+00  0.1180E+02
      9.935  0.1811E+01  0.1223E+02
     10.174  0.1715E+01  0.1264E+02
     10.413  0.6278E+00  0.1279E+02
     10.653  0.9892E+00  0.1303E+02
     10.892  0.1368E+01  0.1336E+02
     11.132  0.1769E+01  0.1378E+02
     11.371  0.9890E+00  0.1402E+02
     11.611  0.1990E+01  0.1449E+02
     11.850  0.7390E+00  0.1467E+02
     12.090  0.7103E+00  0.1484E+02
     12.329  0.4168E+00  0.1494E+02
     12.569  0.6106E+00  0.1509E+02
     12.808  0.7986E+00  0.1528E+02
     13.048  0.2505E+01  0.1588E+02
     13.287  0.9379E-01  0.1590E+02
     13.527  0.2484E+01  0.1650E+02
     13.766  0.1950E+01  0.1696E+02
     14.006  0.1817E+01  0.1740E+02
     14.245  0.5010E+00  0.1752E+02
     14.485  0.1351E+00  0.1755E+02
     14.724  0.1563E+01  0.1793E+02
     14.964  0.1441E+01  0.1827E+02
     15.203  0.4126E+00  0.1837E+02
     15.443  0.1629E+01  0.1876E+02
     15.682  0.2054E+01  0.1925E+02
     15.922  0.1252E+01  0.1955E+02
     16.161  0.1933E+01  0.2001E+02
     16.400  0.1032E+01  0.2026E+02
     16.640  0.1230E+01  0.2056E+02
     16.879  0.9026E+00  0.2077E+02
     17.119  0.7696E+00  0.2096E+02
     17.358  0.1589E+01  0.2134E+02
     17.598  0.8131E+00  0.2153E+02
     17.837  0.1824E+01  0.2197E+02
     18.077  0.2417E+01  0.2255E+02
     18.316  0.1590E+01  0.2293E+02
     18.556  0.2281E+01  0.2347E+02
     18.795  0.1173E+01  0.2375E+02
     19.035  0.1323E+01  0.2407E+02
     19.274  0.6079E+00  0.2422E+02
     19.514  0.1049E+01  0.2447E+02
     19.753  0.1922E+01  0.2493E+02
     19.993  0.1803E+01  0.2536E+02
     20.232  0.1726E+01  0.2577E+02
     20.472  0.1913E+01  0.2623E+02
     20.711  0.2183E+01  0.2675E+02
     20.951  0.1709E+01  0.2716E+02
     21.190  0.1106E+01  0.2743E+02
     21.430  0.1673E+01  0.2783E+02
     21.669  0.1044E+01  0.2808E+02
     21.909  0.9359E+00  0.2830E+02
     22.148  0.1582E+01  0.2868E+02
     22.388  0.1419E+01  0.2902E+02
     22.627  0.1168E+01  0.2930E+02
     22.866  0.1384E+01  0.2963E+02
     23.106  0.1782E+01  0.3006E+02
     23.345  0.8946E+00  0.3027E+02
     23.585  0.1427E+01  0.3062E+02
     23.824  0.2812E+01  0.3129E+02
     24.064  0.2496E+01  0.3189E+02
     24.303  0.2681E+01  0.3253E+02
     24.543  0.1459E+01  0.3288E+02
     24.782  0.1462E+01  0.3323E+02
     25.022  0.2681E+01  0.3387E+02
     25.261  0.1382E+01  0.3420E+02
     25.501  0.2059E+01  0.3469E+02
     25.740  0.4891E+00  0.3481E+02
     25.980  0.7813E+00  0.3500E+02
     26.219  0.8187E+00  0.3520E+02
     26.459  0.1865E+01  0.3564E+02
     26.698  0.2133E+01  0.3615E+02
     26.938  0.4938E+00  0.3627E+02
     27.177  0.3173E+01  0.3703E+02
     27.417  0.4100E+01  0.3801E+02
     27.656  0.1476E+01  0.3837E+02
     27.896  0.1145E+01  0.3864E+02
     28.135  0.1474E+01  0.3899E+02
     28.375  0.2471E+01  0.3958E+02
     28.614  0.1223E+01  0.3988E+02
     28.853  0.1109E+01  0.4014E+02
     29.093  0.1345E+01  0.4047E+02
     29.332  0.1106E+01  0.4073E+02
     29.572  0.2292E+01  0.4128E+02
     29.811  0.1444E+01  0.4163E+02
     30.051  0.6165E+00  0.4177E+02
     30.290  0.1588E+01  0.4215E+02
     30.530  0.1692E+01  0.4256E+02
     30.769  0.2183E+01  0.4308E+02
     31.009  0.1477E+01  0.4343E+02
     31.248  0.1776E+01  0.4386E+02
     31.488  0.2401E+01  0.4443E+02
     31.727  0.2290E+01  0.4498E+02
     31.967  0.1876E+01  0.4543E+02
     32.206  0.8635E+00  0.4564E+02
     32.446  0.1694E+00  0.4568E+02
     32.685  0.2056E+01  0.4617E+02
     32.925  0.3464E+01  0.4700E+02
     33.164  0.1100E+01  0.4727E+02
     33.404  0.1520E+01  0.4763E+02
     33.643  0.2400E+01  0.4820E+02
     33.883  0.5031E+00  0.4832E+02
     34.122  0.1006E+01  0.4857E+02
     34.362  0.2475E+01  0.4916E+02
     34.601  0.2981E+01  0.4987E+02
     34.840  0.2840E+01  0.5055E+02
     35.080  0.2641E+01  0.5118E+02
     35.319  0.1400E+01  0.5152E+02
     35.559  0.1334E+01  0.5184E+02
     35.798  0.2261E+01  0.5238E+02
     36.038  0.1281E+01  0.5269E+02
     36.277  0.6302E+00  0.5284E+02
     36.517  0.2453E+01  0.5343E+02
     36.756  0.3118E+01  0.5417E+02
     36.996  0.1510E+01  0.5453E+02
     37.235  0.2165E+01  0.5505E+02
     37.475  0.2553E+01  0.5566E+02
     37.714  0.8271E+00  0.5586E+02
     37.954  0.2916E+01  0.5656E+02
     38.193  0.2210E+01  0.5709E+02
     38.433  0.1371E+01  0.5742E+02
     38.672  0.3236E+01  0.5819E+02
     38.912  0.1871E+01  0.5864E+02
     39.151  0.1290E+01  0.5895E+02
     39.391  0.1202E+01  0.5924E+02
     39.630  0.1867E+01  0.5968E+02
     39.870  0.2285E+01  0.6023E+02
     40.109  0.1145E+01  0.6051E+02
     40.349  0.2361E+01  0.6107E+02
     40.588  0.1497E+01  0.6143E+02
     40.828  0.1545E+01  0.6180E+02
     41.067  0.1312E+01  0.6211E+02
     41.306  0.2063E+01  0.6261E+02
     41.546  0.1020E+01  0.6285E+02
     41.785  0.2018E+01  0.6334E+02
     42.025  0.1768E+01  0.6376E+02
     42.264  0.1763E+01  0.6418E+02
     42.504  0.1793E+01  0.6461E+02
     42.743  0.2925E+01  0.6531E+02
     42.983  0.1581E+01  0.6569E+02
     43.222  0.1497E+01  0.6605E+02
     43.462  0.1291E+01  0.6636E+02
     43.701  0.2482E+01  0.6695E+02
     43.941  0.2404E+01  0.6753E+02
     44.180  0.2206E+01  0.6806E+02
     44.420  0.1490E+01  0.6841E+02
     44.659  0.2770E+01  0.6908E+02
     44.899  0.1106E+01  0.6934E+02
     45.138  0.2298E+01  0.6989E+02
     45.378  0.2077E+01  0.7039E+02
     45.617  0.2942E+01  0.7109E+02
     45.857  0.1823E+01  0.7153E+02
     46.096  0.2945E+01  0.7223E+02
     46.336  0.1370E+01  0.7256E+02
     46.575  0.9177E+00  0.7278E+02
     46.815  0.1972E+01  0.7325E+02
     47.054  0.1395E+01  0.7359E+02
     47.293  0.1860E+01  0.7403E+02
     47.533  0.3355E+01  0.7484E+02
     47.772  0.2138E+01  0.7535E+02
     48.012  0.2265E+01  0.7589E+02
     48.251  0.1810E+01  0.7633E+02
     48.491  0.2904E+01  0.7702E+02
     48.730  0.1689E+01  0.7743E+02
     48.970  0.1964E+01  0.7790E+02
     49.209  0.2604E+01  0.7852E+02
     49.449  0.2140E+01  0.7903E+02
     49.688  0.1109E+01  0.7930E+02
     49.928  0.2882E+01  0.7999E+02
     50.167  0.1543E+01  0.8036E+02
     50.407  0.3668E+01  0.8124E+02
     50.646  0.2078E+01  0.8173E+02
     50.886  0.1655E+01  0.8213E+02
     51.125  0.1001E+01  0.8237E+02
     51.365  0.2525E+01  0.8297E+02
     51.604  0.1907E+01  0.8343E+02
     51.844  0.3709E+01  0.8432E+02
     52.083  0.1515E+01  0.8468E+02
     52.323  0.2059E+01  0.8517E+02
     52.562  0.2916E+01  0.8587E+02
     52.802  0.2337E+01  0.8643E+02
     53.041  0.8344E+00  0.8663E+02
     53.280  0.2413E+01  0.8721E+02
     53.520  0.2810E+01  0.8788E+02
     53.759  0.2890E+01  0.8858E+02
     53.999  0.2132E+01  0.8909E+02
     54.238  0.4036E+01  0.9005E+02
     54.478  0.1385E+01  0.9038E+02
     54.717  0.2408E+01  0.9096E+02
     54.957  0.1240E+01  0.9126E+02
     55.196  0.3961E+00  0.9135E+02
     55.436  0.8428E+00  0.9155E+02
     55.675  0.2938E+01  0.9226E+02
     55.915  0.5731E+00  0.9240E+02
     56.154  0.1434E+01  0.9274E+02
     56.394  0.2997E+01  0.9346E+02
     56.633  0.1309E+01  0.9377E+02
     56.873  0.2578E+01  0.9439E+02
     57.112  0.1619E+01  0.9477E+02
     57.352  0.1364E+01  0.9510E+02
     57.591  0.1628E+00  0.9514E+02
     57.831  0.3940E+00  0.9523E+02
     58.070  0.8940E+00  0.9545E+02
     58.310  0.9875E+00  0.9569E+02
     58.549  0.8111E+00  0.9588E+02
     58.789  0.1108E+00  0.9591E+02
     59.028  0.2696E-02  0.9591E+02
     59.268  0.3888E+00  0.9600E+02
     59.507  0.3189E-05  0.9600E+02
     59.746  0.0000E+00  0.9600E+02
     59.986  0.0000E+00  0.9600E+02
     60.225  0.0000E+00  0.9600E+02
     60.465  0.0000E+00  0.9600E+02
     60.704  0.0000E+00  0.9600E+02
     60.944  0.0000E+00  0.9600E+02
     61.183  0.0000E+00  0.9600E+02
     61.423  0.0000E+00  0.9600E+02
     61.662  0.0000E+00  0.9600E+02
     61.902  0.0000E+00  0.9600E+02
     62.141  0.0000E+00  0.9600E+02
     62.381  0.0000E+00  0.9600E+02
