 vasp.6.4.3 19Mar24 (build Jun 26 2024 13:02:28) complex                        
  
 executed on             LinuxIFC date 2025.08.08  19:03:21
 running   48 mpi-ranks, on    4 nodes
 distrk:  each k-point on   48 cores,    1 groups
 distr:  one band on NCORE=   1 cores,   48 groups


--------------------------------------------------------------------------------------------------------


 INCAR:
   ENCUT = 318.9485
   IBRION = -1
   ISMEAR = 0
   ISYM = 2
   LCHARG = True
   LWAVE = True
   SIGMA = 0.05
   SYSTEM = Si

 POTCAR:  PAW_PBE Si 05Jan2001                    
 -----------------------------------------------------------------------------
|                                                                             |
|           W    W    AA    RRRRR   N    N  II  N    N   GGGG   !!!           |
|           W    W   A  A   R    R  NN   N  II  NN   N  G    G  !!!           |
|           W    W  A    A  R    R  N N  N  II  N N  N  G       !!!           |
|           W WW W  AAAAAA  RRRRR   N  N N  II  N  N N  G  GGG   !            |
|           WW  WW  A    A  R   R   N   NN  II  N   NN  G    G                |
|           W    W  A    A  R    R  N    N  II  N    N   GGGG   !!!           |
|                                                                             |
|     For optimal performance we recommend to set                             |
|       NCORE = 2 up to number-of-cores-per-socket                            |
|     NCORE specifies how many cores store one orbital (NPAR=cpu/NCORE).      |
|     This setting can greatly improve the performance of VASP for DFT.       |
|     The default, NCORE=1 might be grossly inefficient on modern             |
|     multi-core architectures or massively parallel machines. Do your        |
|     own testing! More info at https://www.vasp.at/wiki/index.php/NCORE      |
|     Unfortunately you need to use the default for GW and RPA                |
|     calculations (for HF NCORE is supported but not extensively tested      |
|     yet).                                                                   |
|                                                                             |
 -----------------------------------------------------------------------------

 POTCAR:  PAW_PBE Si 05Jan2001                    
   VRHFIN =Si: s2p2                                                                                 
   LEXCH  = PE                                                                                      
   EATOM  =   103.0669 eV,    7.5752 Ry                                                             
                                                                                                    
   TITEL  = PAW_PBE Si 05Jan2001                                                                    
   LULTRA =        F    use ultrasoft PP ?                                                          
   IUNSCR =        1    unscreen: 0-lin 1-nonlin 2-no                                               
   RPACOR =    1.500    partial core radius                                                         
   POMASS =   28.085; ZVAL   =    4.000    mass and valenz                                          
   RCORE  =    1.900    outmost cutoff radius                                                       
   RWIGS  =    2.480; RWIGS  =    1.312    wigner-seitz radius (au A)                               
   ENMAX  =  245.345; ENMIN  =  184.009 eV                                                          
   ICORE  =        2    local potential                                                             
   LCOR   =        T    correct aug charges                                                         
   LPAW   =        T    paw PP                                                                      
   EAUG   =  322.069                                                                                
   DEXC   =    0.000                                                                                
   RMAX   =    1.950    core radius for proj-oper                                                   
   RAUG   =    1.300    factor for augmentation sphere                                              
   RDEP   =    1.993    radius for radial grids                                                     
   RDEPT  =    1.837    core radius for aug-charge                                                  
                                                                                                    
   Atomic configuration                                                                             
    6 entries                                                                                       
     n  l   j            E        occ.                                                              
     1  0  0.50     -1785.8828   2.0000                                                             
     2  0  0.50      -139.4969   2.0000                                                             
     2  1  1.50       -95.5546   6.0000                                                             
     3  0  0.50       -10.8127   2.0000                                                             
     3  1  0.50        -4.0811   2.0000                                                             
     3  2  1.50        -4.0817   0.0000                                                             
   Description                                                                                      
     l       E           TYP  RCUT    TYP  RCUT                                                     
     0    -10.8127223     23  1.900                                                                 
     0     -7.6451159     23  1.900                                                                 
     1     -4.0811372     23  1.900                                                                 
     1      2.4879257     23  1.900                                                                 
     2     -4.0817478      7  1.900                                                                 
  local pseudopotential read in
  partial core-charges read in
  partial kinetic energy density read in
  atomic valenz-charges read in
  non local Contribution for L=           0  read in
    real space projection operators read in
  non local Contribution for L=           0  read in
    real space projection operators read in
  non local Contribution for L=           1  read in
    real space projection operators read in
  non local Contribution for L=           1  read in
    real space projection operators read in
    PAW grid and wavefunctions read in
 
   number of l-projection  operators is LMAX  =           4
   number of lm-projection operators is LMMAX =           8
 
PAW_PBE Si 05Jan2001                    :
 energy of atom  1       EATOM= -103.0669
 kinetic energy error for atom=    0.0016 (will be added to EATOM!!)
 
 
 POSCAR: Si2
  positions in direct lattice
  No initial velocities read in


 exchange-correlation table for PE
   RHO(1)=    0.500       N(1)  =     2000
   RHO(2)=  100.500       N(2)  =     4000
 


--------------------------------------------------------------------------------------------------------


 ion  position               nearest neighbor table
   1  0.000  0.000  0.000-   2 2.37   2 2.37   2 2.37   2 2.37
   2  0.250  0.250  0.250-   1 2.37   1 2.37   1 2.37   1 2.37
 
  LATTYP: Found a face centered cubic cell.
 ALAT       =     5.4688911249
  
  Lattice vectors:
  
 A1 = (   3.3489981787,   0.0000000000,   1.9335450000)
 A2 = (   1.1163327262,   3.1574657631,   1.9335450000)
 A3 = (   0.0000000000,   0.0000000000,   3.8670900000)


Analysis of symmetry for initial positions (statically):
=====================================================================
 Subroutine PRICEL returns:
 Original cell was already a primitive cell.
 

 Routine SETGRP: Setting up the symmetry group for a 
 face centered cubic supercell.


 Subroutine GETGRP returns: Found 48 space group operations
 (whereof 24 operations were pure point group operations)
 out of a pool of 48 trial point group operations.


The static configuration has the point symmetry T_d .
 The point group associated with its full space group is O_h .


Analysis of symmetry for dynamics (positions and initial velocities):
=====================================================================
 Subroutine PRICEL returns:
 Original cell was already a primitive cell.
 

 Routine SETGRP: Setting up the symmetry group for a 
 face centered cubic supercell.


 Subroutine GETGRP returns: Found 48 space group operations
 (whereof 24 operations were pure point group operations)
 out of a pool of 48 trial point group operations.


The dynamic configuration has the point symmetry T_d .
 The point group associated with its full space group is O_h .


 Subroutine INISYM returns: Found 48 space group operations
 (whereof 24 operations are pure point group operations),
 and found     1 'primitive' translations


----------------------------------------------------------------------------------------

                                     Primitive cell                                     

  volume of cell :      40.8920

  direct lattice vectors                    reciprocal lattice vectors
     3.348998179  0.000000000  1.933545000     0.298596758 -0.105569896  0.000000000
     1.116332726  3.157465763  1.933545000     0.000000000  0.316709689  0.000000000
     0.000000000  0.000000000  3.867090000    -0.149298379 -0.105569896  0.258592378

  length of vectors
     3.867090000  3.867090000  3.867090000     0.316709689  0.316709689  0.316709689

  position of ions in fractional coordinates (direct lattice)
     0.000000000  0.000000000  0.000000000
     0.250000000  0.250000000  0.250000000

  ion indices of the primitive-cell ions
   primitive index   ion index
                 1           1
                 2           2

----------------------------------------------------------------------------------------

 
 
 KPOINTS: Automatic kpoint scheme                 

Automatic generation of k-mesh.
 Grid dimensions read from file:
 generate k-points for:    8    8    8

 Generating k-lattice:

  Cartesian coordinates                     Fractional coordinates (reciprocal lattice)
     0.037324595 -0.013196237  0.000000000     0.125000000 -0.000000000  0.000000000
     0.000000000  0.039588711  0.000000000     0.000000000  0.125000000  0.000000000
    -0.018662297 -0.013196237  0.032324047    -0.000000000 -0.000000000  0.125000000

  Length of vectors
     0.039588711  0.039588711  0.039588711

  Shift w.r.t. Gamma in fractional coordinates (k-lattice)
     0.000000000  0.000000000  0.000000000

 
 Subroutine IBZKPT returns following result:
 ===========================================
 
 Found     29 irreducible k-points:
 
 Following reciprocal coordinates:
            Coordinates               Weight
  0.000000  0.000000  0.000000      1.000000
  0.125000 -0.000000  0.000000      8.000000
  0.250000 -0.000000  0.000000      8.000000
  0.375000 -0.000000  0.000000      8.000000
  0.500000 -0.000000  0.000000      4.000000
  0.125000  0.125000  0.000000      6.000000
  0.250000  0.125000  0.000000     24.000000
  0.375000  0.125000  0.000000     24.000000
  0.500000  0.125000  0.000000     24.000000
 -0.375000  0.125000  0.000000     24.000000
 -0.250000  0.125000  0.000000     24.000000
 -0.125000  0.125000  0.000000     12.000000
  0.250000  0.250000  0.000000      6.000000
  0.375000  0.250000  0.000000     24.000000
  0.500000  0.250000  0.000000     24.000000
 -0.375000  0.250000  0.000000     24.000000
 -0.250000  0.250000  0.000000     12.000000
  0.375000  0.375000  0.000000      6.000000
  0.500000  0.375000  0.000000     24.000000
 -0.375000  0.375000  0.000000     12.000000
  0.500000  0.500000  0.000000      3.000000
  0.375000  0.250000  0.125000     24.000000
  0.500000  0.250000  0.125000     48.000000
 -0.375000  0.250000  0.125000     24.000000
  0.500000  0.375000  0.125000     24.000000
 -0.375000  0.375000  0.125000     48.000000
 -0.250000  0.375000  0.125000     24.000000
 -0.375000  0.500000  0.125000     12.000000
 -0.250000  0.500000  0.250000      6.000000
 
 Following cartesian coordinates:
            Coordinates               Weight
  0.000000  0.000000  0.000000      1.000000
  0.037325 -0.013196  0.000000      8.000000
  0.074649 -0.026392  0.000000      8.000000
  0.111974 -0.039589  0.000000      8.000000
  0.149298 -0.052785  0.000000      4.000000
  0.037325  0.026392  0.000000      6.000000
  0.074649  0.013196  0.000000     24.000000
  0.111974 -0.000000  0.000000     24.000000
  0.149298 -0.013196  0.000000     24.000000
 -0.111974  0.079177  0.000000     24.000000
 -0.074649  0.065981  0.000000     24.000000
 -0.037325  0.052785  0.000000     12.000000
  0.074649  0.052785  0.000000      6.000000
  0.111974  0.039589  0.000000     24.000000
  0.149298  0.026392  0.000000     24.000000
 -0.111974  0.118766  0.000000     24.000000
 -0.074649  0.105570  0.000000     12.000000
  0.111974  0.079177  0.000000      6.000000
  0.149298  0.065981  0.000000     24.000000
 -0.111974  0.158355  0.000000     12.000000
  0.149298  0.105570  0.000000      3.000000
  0.093311  0.026392  0.032324     24.000000
  0.130636  0.013196  0.032324     48.000000
 -0.130636  0.105570  0.032324     24.000000
  0.130636  0.052785  0.032324     24.000000
 -0.130636  0.145159  0.032324     48.000000
 -0.093311  0.131962  0.032324     24.000000
 -0.130636  0.184747  0.032324     12.000000
 -0.111974  0.158355  0.064648      6.000000
 
 
 Subroutine IBZKPT_HF returns following result:
 ==============================================
 
 Found    512 k-points in 1st BZ
 the following    512 k-points will be used (e.g. in the exchange kernel)
 Following reciprocal coordinates:   # in IRBZ
  0.000000  0.000000  0.000000    0.00195312   1 t-inv F
  0.125000 -0.000000  0.000000    0.00195312   2 t-inv F
  0.250000 -0.000000  0.000000    0.00195312   3 t-inv F
  0.375000 -0.000000  0.000000    0.00195312   4 t-inv F
  0.500000 -0.000000  0.000000    0.00195312   5 t-inv F
  0.125000  0.125000  0.000000    0.00195312   6 t-inv F
  0.250000  0.125000  0.000000    0.00195312   7 t-inv F
  0.375000  0.125000  0.000000    0.00195312   8 t-inv F
  0.500000  0.125000  0.000000    0.00195312   9 t-inv F
 -0.375000  0.125000  0.000000    0.00195312  10 t-inv F
 -0.250000  0.125000  0.000000    0.00195312  11 t-inv F
 -0.125000  0.125000  0.000000    0.00195312  12 t-inv F
  0.250000  0.250000  0.000000    0.00195312  13 t-inv F
  0.375000  0.250000  0.000000    0.00195312  14 t-inv F
  0.500000  0.250000  0.000000    0.00195312  15 t-inv F
 -0.375000  0.250000  0.000000    0.00195312  16 t-inv F
 -0.250000  0.250000  0.000000    0.00195312  17 t-inv F
  0.375000  0.375000  0.000000    0.00195312  18 t-inv F
  0.500000  0.375000  0.000000    0.00195312  19 t-inv F
 -0.375000  0.375000  0.000000    0.00195312  20 t-inv F
  0.500000  0.500000  0.000000    0.00195312  21 t-inv F
  0.375000  0.250000  0.125000    0.00195312  22 t-inv F
  0.500000  0.250000  0.125000    0.00195312  23 t-inv F
 -0.375000  0.250000  0.125000    0.00195312  24 t-inv F
  0.500000  0.375000  0.125000    0.00195312  25 t-inv F
 -0.375000  0.375000  0.125000    0.00195312  26 t-inv F
 -0.250000  0.375000  0.125000    0.00195312  27 t-inv F
 -0.375000  0.500000  0.125000    0.00195312  28 t-inv F
 -0.250000  0.500000  0.250000    0.00195312  29 t-inv F
  0.000000  0.125000 -0.000000    0.00195312   2 t-inv F
 -0.000000  0.000000  0.125000    0.00195312   2 t-inv F
 -0.125000 -0.125000 -0.125000    0.00195312   2 t-inv F
 -0.125000  0.000000  0.000000    0.00195312   2 t-inv F
  0.000000 -0.125000  0.000000    0.00195312   2 t-inv F
  0.000000  0.000000 -0.125000    0.00195312   2 t-inv F
  0.125000  0.125000  0.125000    0.00195312   2 t-inv F
  0.000000  0.250000 -0.000000    0.00195312   3 t-inv F
 -0.000000  0.000000  0.250000    0.00195312   3 t-inv F
 -0.250000 -0.250000 -0.250000    0.00195312   3 t-inv F
 -0.250000  0.000000  0.000000    0.00195312   3 t-inv F
  0.000000 -0.250000  0.000000    0.00195312   3 t-inv F
  0.000000  0.000000 -0.250000    0.00195312   3 t-inv F
  0.250000  0.250000  0.250000    0.00195312   3 t-inv F
  0.000000  0.375000 -0.000000    0.00195312   4 t-inv F
 -0.000000  0.000000  0.375000    0.00195312   4 t-inv F
 -0.375000 -0.375000 -0.375000    0.00195312   4 t-inv F
 -0.375000  0.000000  0.000000    0.00195312   4 t-inv F
  0.000000 -0.375000  0.000000    0.00195312   4 t-inv F
  0.000000  0.000000 -0.375000    0.00195312   4 t-inv F
  0.375000  0.375000  0.375000    0.00195312   4 t-inv F
  0.000000  0.500000 -0.000000    0.00195312   5 t-inv F
 -0.000000  0.000000  0.500000    0.00195312   5 t-inv F
 -0.500000 -0.500000 -0.500000    0.00195312   5 t-inv F
  0.000000  0.125000  0.125000    0.00195312   6 t-inv F
  0.125000  0.000000  0.125000    0.00195312   6 t-inv F
 -0.125000 -0.125000  0.000000    0.00195312   6 t-inv F
 -0.125000 -0.000000 -0.125000    0.00195312   6 t-inv F
  0.000000 -0.125000 -0.125000    0.00195312   6 t-inv F
  0.000000  0.250000  0.125000    0.00195312   7 t-inv F
  0.125000  0.000000  0.250000    0.00195312   7 t-inv F
 -0.125000 -0.125000  0.125000    0.00195312   7 t-inv F
 -0.250000 -0.125000 -0.250000    0.00195312   7 t-inv F
  0.125000  0.250000  0.000000    0.00195312   7 t-inv F
  0.125000 -0.125000 -0.125000    0.00195312   7 t-inv F
 -0.250000 -0.250000 -0.125000    0.00195312   7 t-inv F
  0.000000  0.125000  0.250000    0.00195312   7 t-inv F
 -0.125000  0.125000 -0.125000    0.00195312   7 t-inv F
 -0.125000 -0.250000 -0.250000    0.00195312   7 t-inv F
  0.250000  0.000000  0.125000    0.00195312   7 t-inv F
 -0.250000 -0.125000  0.000000    0.00195312   7 t-inv F
  0.000000 -0.250000 -0.125000    0.00195312   7 t-inv F
 -0.125000  0.000000 -0.250000    0.00195312   7 t-inv F
  0.125000  0.125000 -0.125000    0.00195312   7 t-inv F
  0.250000  0.125000  0.250000    0.00195312   7 t-inv F
 -0.125000 -0.250000  0.000000    0.00195312   7 t-inv F
 -0.125000  0.125000  0.125000    0.00195312   7 t-inv F
  0.250000  0.250000  0.125000    0.00195312   7 t-inv F
  0.000000 -0.125000 -0.250000    0.00195312   7 t-inv F
  0.125000 -0.125000  0.125000    0.00195312   7 t-inv F
  0.125000  0.250000  0.250000    0.00195312   7 t-inv F
 -0.250000  0.000000 -0.125000    0.00195312   7 t-inv F
  0.000000  0.375000  0.125000    0.00195312   8 t-inv F
  0.125000  0.000000  0.375000    0.00195312   8 t-inv F
 -0.125000 -0.125000  0.250000    0.00195312   8 t-inv F
 -0.375000 -0.250000 -0.375000    0.00195312   8 t-inv F
  0.125000  0.375000  0.000000    0.00195312   8 t-inv F
  0.250000 -0.125000 -0.125000    0.00195312   8 t-inv F
 -0.375000 -0.375000 -0.250000    0.00195312   8 t-inv F
  0.000000  0.125000  0.375000    0.00195312   8 t-inv F
 -0.125000  0.250000 -0.125000    0.00195312   8 t-inv F
 -0.250000 -0.375000 -0.375000    0.00195312   8 t-inv F
  0.375000  0.000000  0.125000    0.00195312   8 t-inv F
 -0.375000 -0.125000  0.000000    0.00195312   8 t-inv F
  0.000000 -0.375000 -0.125000    0.00195312   8 t-inv F
 -0.125000  0.000000 -0.375000    0.00195312   8 t-inv F
  0.125000  0.125000 -0.250000    0.00195312   8 t-inv F
  0.375000  0.250000  0.375000    0.00195312   8 t-inv F
 -0.125000 -0.375000  0.000000    0.00195312   8 t-inv F
 -0.250000  0.125000  0.125000    0.00195312   8 t-inv F
  0.375000  0.375000  0.250000    0.00195312   8 t-inv F
  0.000000 -0.125000 -0.375000    0.00195312   8 t-inv F
  0.125000 -0.250000  0.125000    0.00195312   8 t-inv F
  0.250000  0.375000  0.375000    0.00195312   8 t-inv F
 -0.375000  0.000000 -0.125000    0.00195312   8 t-inv F
  0.000000  0.500000  0.125000    0.00195312   9 t-inv F
  0.125000  0.000000  0.500000    0.00195312   9 t-inv F
 -0.125000 -0.125000  0.375000    0.00195312   9 t-inv F
 -0.500000 -0.375000 -0.500000    0.00195312   9 t-inv F
  0.125000  0.500000  0.000000    0.00195312   9 t-inv F
  0.375000 -0.125000 -0.125000    0.00195312   9 t-inv F
 -0.500000 -0.500000 -0.375000    0.00195312   9 t-inv F
  0.000000  0.125000  0.500000    0.00195312   9 t-inv F
 -0.125000  0.375000 -0.125000    0.00195312   9 t-inv F
 -0.375000 -0.500000 -0.500000    0.00195312   9 t-inv F
  0.500000  0.000000  0.125000    0.00195312   9 t-inv F
 -0.500000 -0.125000  0.000000    0.00195312   9 t-inv F
  0.000000 -0.500000 -0.125000    0.00195312   9 t-inv F
 -0.125000  0.000000 -0.500000    0.00195312   9 t-inv F
  0.125000  0.125000 -0.375000    0.00195312   9 t-inv F
  0.500000  0.375000  0.500000    0.00195312   9 t-inv F
 -0.125000 -0.500000  0.000000    0.00195312   9 t-inv F
 -0.375000  0.125000  0.125000    0.00195312   9 t-inv F
  0.500000  0.500000  0.375000    0.00195312   9 t-inv F
  0.000000 -0.125000 -0.500000    0.00195312   9 t-inv F
  0.125000 -0.375000  0.125000    0.00195312   9 t-inv F
  0.375000  0.500000  0.500000    0.00195312   9 t-inv F
 -0.500000  0.000000 -0.125000    0.00195312   9 t-inv F
  0.000000 -0.375000  0.125000    0.00195312  10 t-inv F
  0.125000  0.000000 -0.375000    0.00195312  10 t-inv F
 -0.125000 -0.125000 -0.500000    0.00195312  10 t-inv F
  0.375000  0.500000  0.375000    0.00195312  10 t-inv F
  0.125000 -0.375000  0.000000    0.00195312  10 t-inv F
 -0.500000 -0.125000 -0.125000    0.00195312  10 t-inv F
  0.375000  0.375000  0.500000    0.00195312  10 t-inv F
  0.000000  0.125000 -0.375000    0.00195312  10 t-inv F
 -0.125000 -0.500000 -0.125000    0.00195312  10 t-inv F
  0.500000  0.375000  0.375000    0.00195312  10 t-inv F
 -0.375000  0.000000  0.125000    0.00195312  10 t-inv F
  0.375000 -0.125000  0.000000    0.00195312  10 t-inv F
  0.000000  0.375000 -0.125000    0.00195312  10 t-inv F
 -0.125000  0.000000  0.375000    0.00195312  10 t-inv F
  0.125000  0.125000  0.500000    0.00195312  10 t-inv F
 -0.375000 -0.500000 -0.375000    0.00195312  10 t-inv F
 -0.125000  0.375000  0.000000    0.00195312  10 t-inv F
  0.500000  0.125000  0.125000    0.00195312  10 t-inv F
 -0.375000 -0.375000 -0.500000    0.00195312  10 t-inv F
  0.000000 -0.125000  0.375000    0.00195312  10 t-inv F
  0.125000  0.500000  0.125000    0.00195312  10 t-inv F
 -0.500000 -0.375000 -0.375000    0.00195312  10 t-inv F
  0.375000  0.000000 -0.125000    0.00195312  10 t-inv F
  0.000000 -0.250000  0.125000    0.00195312  11 t-inv F
  0.125000  0.000000 -0.250000    0.00195312  11 t-inv F
 -0.125000 -0.125000 -0.375000    0.00195312  11 t-inv F
  0.250000  0.375000  0.250000    0.00195312  11 t-inv F
  0.125000 -0.250000  0.000000    0.00195312  11 t-inv F
 -0.375000 -0.125000 -0.125000    0.00195312  11 t-inv F
  0.250000  0.250000  0.375000    0.00195312  11 t-inv F
  0.000000  0.125000 -0.250000    0.00195312  11 t-inv F
 -0.125000 -0.375000 -0.125000    0.00195312  11 t-inv F
  0.375000  0.250000  0.250000    0.00195312  11 t-inv F
 -0.250000  0.000000  0.125000    0.00195312  11 t-inv F
  0.250000 -0.125000  0.000000    0.00195312  11 t-inv F
  0.000000  0.250000 -0.125000    0.00195312  11 t-inv F
 -0.125000  0.000000  0.250000    0.00195312  11 t-inv F
  0.125000  0.125000  0.375000    0.00195312  11 t-inv F
 -0.250000 -0.375000 -0.250000    0.00195312  11 t-inv F
 -0.125000  0.250000  0.000000    0.00195312  11 t-inv F
  0.375000  0.125000  0.125000    0.00195312  11 t-inv F
 -0.250000 -0.250000 -0.375000    0.00195312  11 t-inv F
  0.000000 -0.125000  0.250000    0.00195312  11 t-inv F
  0.125000  0.375000  0.125000    0.00195312  11 t-inv F
 -0.375000 -0.250000 -0.250000    0.00195312  11 t-inv F
  0.250000  0.000000 -0.125000    0.00195312  11 t-inv F
  0.000000 -0.125000  0.125000    0.00195312  12 t-inv F
  0.125000  0.000000 -0.125000    0.00195312  12 t-inv F
 -0.125000 -0.125000 -0.250000    0.00195312  12 t-inv F
  0.125000  0.250000  0.125000    0.00195312  12 t-inv F
  0.125000 -0.125000  0.000000    0.00195312  12 t-inv F
 -0.250000 -0.125000 -0.125000    0.00195312  12 t-inv F
  0.125000  0.125000  0.250000    0.00195312  12 t-inv F
  0.000000  0.125000 -0.125000    0.00195312  12 t-inv F
 -0.125000 -0.250000 -0.125000    0.00195312  12 t-inv F
  0.250000  0.125000  0.125000    0.00195312  12 t-inv F
 -0.125000  0.000000  0.125000    0.00195312  12 t-inv F
  0.000000  0.250000  0.250000    0.00195312  13 t-inv F
  0.250000  0.000000  0.250000    0.00195312  13 t-inv F
 -0.250000 -0.250000  0.000000    0.00195312  13 t-inv F
 -0.250000 -0.000000 -0.250000    0.00195312  13 t-inv F
  0.000000 -0.250000 -0.250000    0.00195312  13 t-inv F
  0.000000  0.375000  0.250000    0.00195312  14 t-inv F
  0.250000  0.000000  0.375000    0.00195312  14 t-inv F
 -0.250000 -0.250000  0.125000    0.00195312  14 t-inv F
 -0.375000 -0.125000 -0.375000    0.00195312  14 t-inv F
  0.250000  0.375000  0.000000    0.00195312  14 t-inv F
  0.125000 -0.250000 -0.250000    0.00195312  14 t-inv F
 -0.375000 -0.375000 -0.125000    0.00195312  14 t-inv F
  0.000000  0.250000  0.375000    0.00195312  14 t-inv F
 -0.250000  0.125000 -0.250000    0.00195312  14 t-inv F
 -0.125000 -0.375000 -0.375000    0.00195312  14 t-inv F
  0.375000  0.000000  0.250000    0.00195312  14 t-inv F
 -0.375000 -0.250000  0.000000    0.00195312  14 t-inv F
  0.000000 -0.375000 -0.250000    0.00195312  14 t-inv F
 -0.250000  0.000000 -0.375000    0.00195312  14 t-inv F
  0.250000  0.250000 -0.125000    0.00195312  14 t-inv F
  0.375000  0.125000  0.375000    0.00195312  14 t-inv F
 -0.250000 -0.375000  0.000000    0.00195312  14 t-inv F
 -0.125000  0.250000  0.250000    0.00195312  14 t-inv F
  0.375000  0.375000  0.125000    0.00195312  14 t-inv F
  0.000000 -0.250000 -0.375000    0.00195312  14 t-inv F
  0.250000 -0.125000  0.250000    0.00195312  14 t-inv F
  0.125000  0.375000  0.375000    0.00195312  14 t-inv F
 -0.375000  0.000000 -0.250000    0.00195312  14 t-inv F
  0.000000  0.500000  0.250000    0.00195312  15 t-inv F
  0.250000  0.000000  0.500000    0.00195312  15 t-inv F
 -0.250000 -0.250000  0.250000    0.00195312  15 t-inv F
 -0.500000 -0.250000 -0.500000    0.00195312  15 t-inv F
  0.250000  0.500000  0.000000    0.00195312  15 t-inv F
  0.250000 -0.250000 -0.250000    0.00195312  15 t-inv F
 -0.500000 -0.500000 -0.250000    0.00195312  15 t-inv F
  0.000000  0.250000  0.500000    0.00195312  15 t-inv F
 -0.250000  0.250000 -0.250000    0.00195312  15 t-inv F
 -0.250000 -0.500000 -0.500000    0.00195312  15 t-inv F
  0.500000  0.000000  0.250000    0.00195312  15 t-inv F
 -0.500000 -0.250000  0.000000    0.00195312  15 t-inv F
  0.000000 -0.500000 -0.250000    0.00195312  15 t-inv F
 -0.250000  0.000000 -0.500000    0.00195312  15 t-inv F
  0.250000  0.250000 -0.250000    0.00195312  15 t-inv F
  0.500000  0.250000  0.500000    0.00195312  15 t-inv F
 -0.250000 -0.500000  0.000000    0.00195312  15 t-inv F
 -0.250000  0.250000  0.250000    0.00195312  15 t-inv F
  0.500000  0.500000  0.250000    0.00195312  15 t-inv F
  0.000000 -0.250000 -0.500000    0.00195312  15 t-inv F
  0.250000 -0.250000  0.250000    0.00195312  15 t-inv F
  0.250000  0.500000  0.500000    0.00195312  15 t-inv F
 -0.500000  0.000000 -0.250000    0.00195312  15 t-inv F
  0.000000 -0.375000  0.250000    0.00195312  16 t-inv F
  0.250000  0.000000 -0.375000    0.00195312  16 t-inv F
 -0.250000 -0.250000 -0.625000    0.00195312  16 t-inv F
  0.375000  0.625000  0.375000    0.00195312  16 t-inv F
  0.250000 -0.375000  0.000000    0.00195312  16 t-inv F
 -0.625000 -0.250000 -0.250000    0.00195312  16 t-inv F
  0.375000  0.375000  0.625000    0.00195312  16 t-inv F
  0.000000  0.250000 -0.375000    0.00195312  16 t-inv F
 -0.250000 -0.625000 -0.250000    0.00195312  16 t-inv F
  0.625000  0.375000  0.375000    0.00195312  16 t-inv F
 -0.375000  0.000000  0.250000    0.00195312  16 t-inv F
  0.375000 -0.250000  0.000000    0.00195312  16 t-inv F
  0.000000  0.375000 -0.250000    0.00195312  16 t-inv F
 -0.250000  0.000000  0.375000    0.00195312  16 t-inv F
  0.250000  0.250000  0.625000    0.00195312  16 t-inv F
 -0.375000 -0.625000 -0.375000    0.00195312  16 t-inv F
 -0.250000  0.375000  0.000000    0.00195312  16 t-inv F
  0.625000  0.250000  0.250000    0.00195312  16 t-inv F
 -0.375000 -0.375000 -0.625000    0.00195312  16 t-inv F
  0.000000 -0.250000  0.375000    0.00195312  16 t-inv F
  0.250000  0.625000  0.250000    0.00195312  16 t-inv F
 -0.625000 -0.375000 -0.375000    0.00195312  16 t-inv F
  0.375000  0.000000 -0.250000    0.00195312  16 t-inv F
  0.000000 -0.250000  0.250000    0.00195312  17 t-inv F
  0.250000  0.000000 -0.250000    0.00195312  17 t-inv F
 -0.250000 -0.250000 -0.500000    0.00195312  17 t-inv F
  0.250000  0.500000  0.250000    0.00195312  17 t-inv F
  0.250000 -0.250000  0.000000    0.00195312  17 t-inv F
 -0.500000 -0.250000 -0.250000    0.00195312  17 t-inv F
  0.250000  0.250000  0.500000    0.00195312  17 t-inv F
  0.000000  0.250000 -0.250000    0.00195312  17 t-inv F
 -0.250000 -0.500000 -0.250000    0.00195312  17 t-inv F
  0.500000  0.250000  0.250000    0.00195312  17 t-inv F
 -0.250000  0.000000  0.250000    0.00195312  17 t-inv F
  0.000000  0.375000  0.375000    0.00195312  18 t-inv F
  0.375000  0.000000  0.375000    0.00195312  18 t-inv F
 -0.375000 -0.375000  0.000000    0.00195312  18 t-inv F
 -0.375000  0.000000 -0.375000    0.00195312  18 t-inv F
  0.000000 -0.375000 -0.375000    0.00195312  18 t-inv F
  0.000000  0.500000  0.375000    0.00195312  19 t-inv F
  0.375000  0.000000  0.500000    0.00195312  19 t-inv F
 -0.375000 -0.375000  0.125000    0.00195312  19 t-inv F
 -0.500000 -0.125000 -0.500000    0.00195312  19 t-inv F
  0.375000  0.500000  0.000000    0.00195312  19 t-inv F
  0.125000 -0.375000 -0.375000    0.00195312  19 t-inv F
 -0.500000 -0.500000 -0.125000    0.00195312  19 t-inv F
  0.000000  0.375000  0.500000    0.00195312  19 t-inv F
 -0.375000  0.125000 -0.375000    0.00195312  19 t-inv F
 -0.125000 -0.500000 -0.500000    0.00195312  19 t-inv F
  0.500000  0.000000  0.375000    0.00195312  19 t-inv F
 -0.500000 -0.375000  0.000000    0.00195312  19 t-inv F
  0.000000 -0.500000 -0.375000    0.00195312  19 t-inv F
 -0.375000  0.000000 -0.500000    0.00195312  19 t-inv F
  0.375000  0.375000 -0.125000    0.00195312  19 t-inv F
  0.500000  0.125000  0.500000    0.00195312  19 t-inv F
 -0.375000 -0.500000  0.000000    0.00195312  19 t-inv F
 -0.125000  0.375000  0.375000    0.00195312  19 t-inv F
  0.500000  0.500000  0.125000    0.00195312  19 t-inv F
  0.000000 -0.375000 -0.500000    0.00195312  19 t-inv F
  0.375000 -0.125000  0.375000    0.00195312  19 t-inv F
  0.125000  0.500000  0.500000    0.00195312  19 t-inv F
 -0.500000  0.000000 -0.375000    0.00195312  19 t-inv F
  0.000000 -0.375000  0.375000    0.00195312  20 t-inv F
  0.375000  0.000000 -0.375000    0.00195312  20 t-inv F
 -0.375000 -0.375000 -0.750000    0.00195312  20 t-inv F
  0.375000  0.750000  0.375000    0.00195312  20 t-inv F
  0.375000 -0.375000  0.000000    0.00195312  20 t-inv F
 -0.750000 -0.375000 -0.375000    0.00195312  20 t-inv F
  0.375000  0.375000  0.750000    0.00195312  20 t-inv F
  0.000000  0.375000 -0.375000    0.00195312  20 t-inv F
 -0.375000 -0.750000 -0.375000    0.00195312  20 t-inv F
  0.750000  0.375000  0.375000    0.00195312  20 t-inv F
 -0.375000  0.000000  0.375000    0.00195312  20 t-inv F
  0.000000  0.500000  0.500000    0.00195312  21 t-inv F
  0.500000  0.000000  0.500000    0.00195312  21 t-inv F
  0.125000  0.375000  0.250000    0.00195312  22 t-inv F
  0.250000  0.125000  0.375000    0.00195312  22 t-inv F
 -0.250000 -0.125000  0.125000    0.00195312  22 t-inv F
 -0.375000 -0.125000 -0.250000    0.00195312  22 t-inv F
 -0.125000  0.250000  0.125000    0.00195312  22 t-inv F
  0.125000  0.250000 -0.125000    0.00195312  22 t-inv F
  0.125000 -0.125000 -0.250000    0.00195312  22 t-inv F
 -0.250000 -0.125000 -0.375000    0.00195312  22 t-inv F
 -0.250000 -0.375000 -0.125000    0.00195312  22 t-inv F
  0.125000 -0.125000  0.250000    0.00195312  22 t-inv F
  0.125000 -0.250000 -0.125000    0.00195312  22 t-inv F
 -0.125000  0.125000  0.250000    0.00195312  22 t-inv F
 -0.250000  0.125000 -0.125000    0.00195312  22 t-inv F
 -0.375000 -0.250000 -0.125000    0.00195312  22 t-inv F
 -0.125000 -0.250000 -0.375000    0.00195312  22 t-inv F
  0.250000  0.125000 -0.125000    0.00195312  22 t-inv F
 -0.125000  0.125000 -0.250000    0.00195312  22 t-inv F
  0.250000 -0.125000  0.125000    0.00195312  22 t-inv F
 -0.125000 -0.250000  0.125000    0.00195312  22 t-inv F
 -0.125000 -0.375000 -0.250000    0.00195312  22 t-inv F
  0.375000  0.125000  0.250000    0.00195312  22 t-inv F
  0.250000  0.375000  0.125000    0.00195312  22 t-inv F
  0.125000  0.250000  0.375000    0.00195312  22 t-inv F
  0.125000  0.500000  0.250000    0.00195312  23 t-inv F
  0.250000  0.125000  0.500000    0.00195312  23 t-inv F
 -0.250000 -0.125000  0.250000    0.00195312  23 t-inv F
 -0.500000 -0.250000 -0.375000    0.00195312  23 t-inv F
 -0.125000  0.375000  0.125000    0.00195312  23 t-inv F
  0.125000  0.375000 -0.125000    0.00195312  23 t-inv F
  0.250000 -0.125000 -0.250000    0.00195312  23 t-inv F
 -0.375000 -0.250000 -0.500000    0.00195312  23 t-inv F
 -0.375000 -0.500000 -0.250000    0.00195312  23 t-inv F
  0.125000 -0.125000  0.375000    0.00195312  23 t-inv F
  0.250000 -0.250000 -0.125000    0.00195312  23 t-inv F
 -0.125000  0.125000  0.375000    0.00195312  23 t-inv F
 -0.250000  0.250000 -0.125000    0.00195312  23 t-inv F
 -0.500000 -0.375000 -0.250000    0.00195312  23 t-inv F
 -0.250000 -0.375000 -0.500000    0.00195312  23 t-inv F
  0.375000  0.125000 -0.125000    0.00195312  23 t-inv F
 -0.125000  0.250000 -0.250000    0.00195312  23 t-inv F
  0.375000 -0.125000  0.125000    0.00195312  23 t-inv F
 -0.125000 -0.250000  0.250000    0.00195312  23 t-inv F
 -0.250000 -0.500000 -0.375000    0.00195312  23 t-inv F
  0.500000  0.125000  0.250000    0.00195312  23 t-inv F
  0.250000  0.500000  0.125000    0.00195312  23 t-inv F
  0.125000  0.250000  0.500000    0.00195312  23 t-inv F
 -0.500000 -0.250000 -0.125000    0.00195312  23 t-inv F
 -0.125000 -0.500000 -0.250000    0.00195312  23 t-inv F
 -0.250000 -0.125000 -0.500000    0.00195312  23 t-inv F
  0.250000  0.125000 -0.250000    0.00195312  23 t-inv F
  0.500000  0.250000  0.375000    0.00195312  23 t-inv F
  0.125000 -0.375000 -0.125000    0.00195312  23 t-inv F
 -0.125000 -0.375000  0.125000    0.00195312  23 t-inv F
 -0.250000  0.125000  0.250000    0.00195312  23 t-inv F
  0.375000  0.250000  0.500000    0.00195312  23 t-inv F
  0.375000  0.500000  0.250000    0.00195312  23 t-inv F
 -0.125000  0.125000 -0.375000    0.00195312  23 t-inv F
 -0.250000  0.250000  0.125000    0.00195312  23 t-inv F
  0.125000 -0.125000 -0.375000    0.00195312  23 t-inv F
  0.250000 -0.250000  0.125000    0.00195312  23 t-inv F
  0.500000  0.375000  0.250000    0.00195312  23 t-inv F
  0.250000  0.375000  0.500000    0.00195312  23 t-inv F
 -0.375000 -0.125000  0.125000    0.00195312  23 t-inv F
  0.125000 -0.250000  0.250000    0.00195312  23 t-inv F
 -0.375000  0.125000 -0.125000    0.00195312  23 t-inv F
  0.125000  0.250000 -0.250000    0.00195312  23 t-inv F
  0.250000  0.500000  0.375000    0.00195312  23 t-inv F
 -0.500000 -0.125000 -0.250000    0.00195312  23 t-inv F
 -0.250000 -0.500000 -0.125000    0.00195312  23 t-inv F
 -0.125000 -0.250000 -0.500000    0.00195312  23 t-inv F
  0.125000 -0.375000  0.250000    0.00195312  24 t-inv F
  0.250000  0.125000 -0.375000    0.00195312  24 t-inv F
 -0.250000 -0.125000 -0.625000    0.00195312  24 t-inv F
  0.375000  0.625000  0.500000    0.00195312  24 t-inv F
 -0.125000 -0.500000  0.125000    0.00195312  24 t-inv F
  0.125000 -0.500000 -0.125000    0.00195312  24 t-inv F
 -0.625000 -0.125000 -0.250000    0.00195312  24 t-inv F
  0.500000  0.625000  0.375000    0.00195312  24 t-inv F
  0.500000  0.375000  0.625000    0.00195312  24 t-inv F
  0.125000 -0.125000 -0.500000    0.00195312  24 t-inv F
 -0.625000 -0.250000 -0.125000    0.00195312  24 t-inv F
 -0.125000  0.125000 -0.500000    0.00195312  24 t-inv F
 -0.250000 -0.625000 -0.125000    0.00195312  24 t-inv F
  0.375000  0.500000  0.625000    0.00195312  24 t-inv F
  0.625000  0.500000  0.375000    0.00195312  24 t-inv F
 -0.500000  0.125000 -0.125000    0.00195312  24 t-inv F
 -0.125000 -0.625000 -0.250000    0.00195312  24 t-inv F
 -0.500000 -0.125000  0.125000    0.00195312  24 t-inv F
 -0.125000 -0.250000 -0.625000    0.00195312  24 t-inv F
  0.625000  0.375000  0.500000    0.00195312  24 t-inv F
 -0.375000  0.125000  0.250000    0.00195312  24 t-inv F
  0.250000 -0.375000  0.125000    0.00195312  24 t-inv F
  0.125000  0.250000 -0.375000    0.00195312  24 t-inv F
  0.125000  0.500000  0.375000    0.00195312  25 t-inv F
  0.375000  0.125000  0.500000    0.00195312  25 t-inv F
 -0.375000 -0.250000  0.125000    0.00195312  25 t-inv F
 -0.500000 -0.125000 -0.375000    0.00195312  25 t-inv F
 -0.125000  0.375000  0.250000    0.00195312  25 t-inv F
  0.250000  0.375000 -0.125000    0.00195312  25 t-inv F
  0.125000 -0.250000 -0.375000    0.00195312  25 t-inv F
 -0.375000 -0.125000 -0.500000    0.00195312  25 t-inv F
 -0.375000 -0.500000 -0.125000    0.00195312  25 t-inv F
  0.250000 -0.125000  0.375000    0.00195312  25 t-inv F
  0.125000 -0.375000 -0.250000    0.00195312  25 t-inv F
 -0.125000  0.250000  0.375000    0.00195312  25 t-inv F
 -0.375000  0.125000 -0.250000    0.00195312  25 t-inv F
 -0.500000 -0.375000 -0.125000    0.00195312  25 t-inv F
 -0.125000 -0.375000 -0.500000    0.00195312  25 t-inv F
  0.375000  0.250000 -0.125000    0.00195312  25 t-inv F
 -0.250000  0.125000 -0.375000    0.00195312  25 t-inv F
  0.375000 -0.125000  0.250000    0.00195312  25 t-inv F
 -0.250000 -0.375000  0.125000    0.00195312  25 t-inv F
 -0.125000 -0.500000 -0.375000    0.00195312  25 t-inv F
  0.500000  0.125000  0.375000    0.00195312  25 t-inv F
  0.375000  0.500000  0.125000    0.00195312  25 t-inv F
  0.125000  0.375000  0.500000    0.00195312  25 t-inv F
  0.125000 -0.375000  0.375000    0.00195312  26 t-inv F
  0.375000  0.125000 -0.375000    0.00195312  26 t-inv F
 -0.375000 -0.250000 -0.750000    0.00195312  26 t-inv F
  0.375000  0.750000  0.500000    0.00195312  26 t-inv F
 -0.125000 -0.500000  0.250000    0.00195312  26 t-inv F
  0.250000 -0.500000 -0.125000    0.00195312  26 t-inv F
 -0.750000 -0.250000 -0.375000    0.00195312  26 t-inv F
  0.500000  0.750000  0.375000    0.00195312  26 t-inv F
  0.500000  0.375000  0.750000    0.00195312  26 t-inv F
  0.250000 -0.125000 -0.500000    0.00195312  26 t-inv F
 -0.750000 -0.375000 -0.250000    0.00195312  26 t-inv F
 -0.125000  0.250000 -0.500000    0.00195312  26 t-inv F
 -0.375000 -0.750000 -0.250000    0.00195312  26 t-inv F
  0.375000  0.500000  0.750000    0.00195312  26 t-inv F
  0.750000  0.500000  0.375000    0.00195312  26 t-inv F
 -0.500000  0.250000 -0.125000    0.00195312  26 t-inv F
 -0.250000 -0.750000 -0.375000    0.00195312  26 t-inv F
 -0.500000 -0.125000  0.250000    0.00195312  26 t-inv F
 -0.250000 -0.375000 -0.750000    0.00195312  26 t-inv F
  0.750000  0.375000  0.500000    0.00195312  26 t-inv F
 -0.375000  0.125000  0.375000    0.00195312  26 t-inv F
  0.375000 -0.375000  0.125000    0.00195312  26 t-inv F
  0.125000  0.375000 -0.375000    0.00195312  26 t-inv F
  0.375000 -0.375000 -0.125000    0.00195312  26 t-inv F
 -0.125000  0.375000 -0.375000    0.00195312  26 t-inv F
 -0.375000 -0.125000  0.375000    0.00195312  26 t-inv F
  0.375000  0.250000  0.750000    0.00195312  26 t-inv F
 -0.375000 -0.750000 -0.500000    0.00195312  26 t-inv F
  0.125000  0.500000 -0.250000    0.00195312  26 t-inv F
 -0.250000  0.500000  0.125000    0.00195312  26 t-inv F
  0.750000  0.250000  0.375000    0.00195312  26 t-inv F
 -0.500000 -0.750000 -0.375000    0.00195312  26 t-inv F
 -0.500000 -0.375000 -0.750000    0.00195312  26 t-inv F
 -0.250000  0.125000  0.500000    0.00195312  26 t-inv F
  0.750000  0.375000  0.250000    0.00195312  26 t-inv F
  0.125000 -0.250000  0.500000    0.00195312  26 t-inv F
  0.375000  0.750000  0.250000    0.00195312  26 t-inv F
 -0.375000 -0.500000 -0.750000    0.00195312  26 t-inv F
 -0.750000 -0.500000 -0.375000    0.00195312  26 t-inv F
  0.500000 -0.250000  0.125000    0.00195312  26 t-inv F
  0.250000  0.750000  0.375000    0.00195312  26 t-inv F
  0.500000  0.125000 -0.250000    0.00195312  26 t-inv F
  0.250000  0.375000  0.750000    0.00195312  26 t-inv F
 -0.750000 -0.375000 -0.500000    0.00195312  26 t-inv F
  0.375000 -0.125000 -0.375000    0.00195312  26 t-inv F
 -0.375000  0.375000 -0.125000    0.00195312  26 t-inv F
 -0.125000 -0.375000  0.375000    0.00195312  26 t-inv F
  0.125000 -0.250000  0.375000    0.00195312  27 t-inv F
  0.375000  0.125000 -0.250000    0.00195312  27 t-inv F
 -0.375000 -0.250000 -0.625000    0.00195312  27 t-inv F
  0.250000  0.625000  0.375000    0.00195312  27 t-inv F
 -0.125000 -0.375000  0.250000    0.00195312  27 t-inv F
  0.250000 -0.375000 -0.125000    0.00195312  27 t-inv F
 -0.625000 -0.250000 -0.375000    0.00195312  27 t-inv F
  0.375000  0.625000  0.250000    0.00195312  27 t-inv F
  0.375000  0.250000  0.625000    0.00195312  27 t-inv F
  0.250000 -0.125000 -0.375000    0.00195312  27 t-inv F
 -0.625000 -0.375000 -0.250000    0.00195312  27 t-inv F
 -0.125000  0.250000 -0.375000    0.00195312  27 t-inv F
 -0.375000 -0.625000 -0.250000    0.00195312  27 t-inv F
  0.250000  0.375000  0.625000    0.00195312  27 t-inv F
  0.625000  0.375000  0.250000    0.00195312  27 t-inv F
 -0.375000  0.250000 -0.125000    0.00195312  27 t-inv F
 -0.250000 -0.625000 -0.375000    0.00195312  27 t-inv F
 -0.375000 -0.125000  0.250000    0.00195312  27 t-inv F
 -0.250000 -0.375000 -0.625000    0.00195312  27 t-inv F
  0.625000  0.250000  0.375000    0.00195312  27 t-inv F
 -0.250000  0.125000  0.375000    0.00195312  27 t-inv F
  0.375000 -0.250000  0.125000    0.00195312  27 t-inv F
  0.125000  0.375000 -0.250000    0.00195312  27 t-inv F
  0.125000 -0.375000  0.500000    0.00195312  28 t-inv F
  0.500000  0.125000 -0.375000    0.00195312  28 t-inv F
 -0.500000 -0.375000 -0.875000    0.00195312  28 t-inv F
  0.375000  0.875000  0.500000    0.00195312  28 t-inv F
 -0.125000 -0.500000  0.375000    0.00195312  28 t-inv F
  0.375000 -0.500000 -0.125000    0.00195312  28 t-inv F
  0.500000  0.875000  0.375000    0.00195312  28 t-inv F
  0.500000  0.375000  0.875000    0.00195312  28 t-inv F
 -0.875000 -0.500000 -0.375000    0.00195312  28 t-inv F
 -0.125000  0.375000 -0.500000    0.00195312  28 t-inv F
 -0.375000 -0.875000 -0.500000    0.00195312  28 t-inv F
  0.250000 -0.250000  0.500000    0.00195312  29 t-inv F
  0.500000  0.250000 -0.250000    0.00195312  29 t-inv F
 -0.500000 -0.250000 -0.750000    0.00195312  29 t-inv F
  0.250000 -0.500000 -0.250000    0.00195312  29 t-inv F
 -0.250000  0.250000 -0.500000    0.00195312  29 t-inv F


--------------------------------------------------------------------------------------------------------




 Dimension of arrays:
   k-points           NKPTS =     29   k-points in BZ     NKDIM =     29   number of bands    NBANDS=     48
   number of dos      NEDOS =    301   number of ions     NIONS =      2
   non local maximal  LDIM  =      4   non local SUM 2l+1 LMDIM =      8
   total plane-waves  NPLWV =   5832
   max r-space proj   IRMAX =      1   max aug-charges    IRDMAX=   4967
   dimension x,y,z NGX =    18 NGY =   18 NGZ =   18
   dimension x,y,z NGXF=    36 NGYF=   36 NGZF=   36
   support grid    NGXF=    36 NGYF=   36 NGZF=   36
   ions per type =               2
   NGX,Y,Z   is equivalent  to a cutoff of   7.74,  7.74,  7.74 a.u.
   NGXF,Y,Z  is equivalent  to a cutoff of  15.48, 15.48, 15.48 a.u.

 SYSTEM =  Si                                      
 POSCAR =  Si2                                     

 Startparameter for this run:
   NWRITE =      2    write-flag & timer
   PREC   = normal    normal or accurate (medium, high low for compatibility)
   ISTART =      1    job   : 0-new  1-cont  2-samecut
   ICHARG =      0    charge: 1-file 2-atom 10-const
   ISPIN  =      1    spin polarized calculation?
   LNONCOLLINEAR =      F non collinear calculations
   LSORBIT =      F    spin-orbit coupling
   INIWAV =      1    electr: 0-lowe 1-rand  2-diag
   LASPH  =      F    aspherical Exc in radial PAW
 Electronic Relaxation 1
   ENCUT  =  318.9 eV  23.44 Ry    4.84 a.u.   5.63  5.63  5.63*2*pi/ulx,y,z
   ENINI  =  318.9     initial cutoff
   ENAUG  =  322.1 eV  augmentation charge cutoff
   NELM   =     60;   NELMIN=  2; NELMDL=  0     # of ELM steps 
   EDIFF  = 0.1E-03   stopping-criterion for ELM
   LREAL  =      F    real-space projection
   NLSPLINE    = F    spline interpolate recip. space projectors
   LCOMPAT=      F    compatible to vasp.4.4
   GGA_COMPAT  = T    GGA compatible to vasp.4.4-vasp.4.6
   LMAXPAW     = -100 max onsite density
   LMAXMIX     =    2 max onsite mixed and CHGCAR
   VOSKOWN=      0    Vosko Wilk Nusair interpolation
   ROPT   =    0.00000
 Ionic relaxation
   EDIFFG = 0.1E-02   stopping-criterion for IOM
   NSW    =      0    number of steps for IOM
   NBLOCK =      1;   KBLOCK =      1    inner block; outer block 
   IBRION =     -1    ionic relax: 0-MD 1-quasi-New 2-CG
   NFREE  =      0    steps in history (QN), initial steepest desc. (CG)
   ISIF   =      2    stress and relaxation
   IWAVPR =     10    prediction:  0-non 1-charg 2-wave 3-comb
   ISYM   =      2    0-nonsym 1-usesym 2-fastsym
   LCORR  =      T    Harris-Foulkes like correction to forces

   POTIM  = 0.5000    time-step for ionic-motion
   TEIN   =    0.0    initial temperature
   TEBEG  =    0.0;   TEEND  =   0.0 temperature during run
   SMASS  =  -3.00    Nose mass-parameter (am)
   estimated Nose-frequenzy (Omega)   =  0.10E-29 period in steps = 0.13E+47 mass=  -0.342E-27a.u.
   SCALEE = 1.0000    scale energy and forces
   NPACO  =    256;   APACO  = 10.0  distance and # of slots for P.C.
   PSTRESS=    0.0 pullay stress

  Mass of Ions in am
   POMASS =  28.09
  Ionic Valenz
   ZVAL   =   4.00
  Atomic Wigner-Seitz radii
   RWIGS  =  -1.00
  virtual crystal weights 
   VCA    =   1.00
   NELECT =       8.0000    total number of electrons
   NUPDOWN=      -1.0000    fix difference up-down

 DOS related values:
   EMIN   =  10.00;   EMAX   =-10.00  energy-range for DOS
   EFERMI =   0.00;   METHOD = LEGACY      
   ISMEAR =     0;   SIGMA  =   0.05  broadening in eV -4-tet -1-fermi 0-gaus

 Electronic relaxation 2 (details)
   IALGO  =     38    algorithm
   LDIAG  =      T    sub-space diagonalisation (order eigenvalues)
   LSUBROT=      F    optimize rotation matrix (better conditioning)
   TURBO    =      0    0=normal 1=particle mesh
   IRESTART =      0    0=no restart 2=restart with 2 vectors
   NREBOOT  =      0    no. of reboots
   NMIN     =      0    reboot dimension
   EREF     =   0.00    reference energy to select bands
   IMIX   =      4    mixing-type and parameters
     AMIX     =   0.40;   BMIX     =  1.00
     AMIX_MAG =   1.60;   BMIX_MAG =  1.00
     AMIN     =   0.10
     WC   =   100.;   INIMIX=   1;  MIXPRE=   1;  MAXMIX= -45

 Intra band minimization:
   WEIMIN = 0.0000     energy-eigenvalue tresh-hold
   EBREAK =  0.52E-06  absolut break condition
   DEPER  =   0.30     relativ break condition  

   TIME   =   0.40     timestep for ELM

  volume/ion in A,a.u.               =      20.45       137.98
  Fermi-wavevector in a.u.,A,eV,Ry     =   0.950369  1.795937 12.288796  0.903201
  Thomas-Fermi vector in A             =   2.078739
 
 Write flags
   LWAVE        =      T    write WAVECAR
   LDOWNSAMPLE  =      F    k-point downsampling of WAVECAR
   LCHARG       =      T    write CHGCAR
   LVTOT        =      F    write LOCPOT, total local potential
   LVHAR        =      F    write LOCPOT, Hartree potential only
   WRT_POTENTIAL= false  ! write potential to hdf5 file
   LELF         =      F    write electronic localiz. function (ELF)
   LORBIT       =      0    0 simple, 1 ext, 2 COOP (PROOUT), +10 PAW based schemes


 Dipole corrections
   LMONO      =      F    monopole corrections only (constant potential shift)
   LDIPOL     =      F    correct potential (dipole corrections)
   IDIPOL     =      0    1-x, 2-y, 3-z, 4-all directions 
   EPSILON    =  1.0000000 bulk dielectric constant
   LVACPOTAV  =      F  vacuum potentials using an averaging scheme for the charge density
   VACPOTFLAT =  0.1000000 required flatness to determine vacuum potential
 Exchange correlation treatment:
   GGA     = PE    functional components
   XC_C    = 1    coefficients multiplying the functional components
   LIBXC   =     F    Libxc                    
   VOSKOWN =     0    Vosko Wilk Nusair interpolation
   LHFCALC =     F    Hartree Fock is set to
   LHFONE  =     F    Hartree Fock one center treatment
   AEXX    =    0.0000 exact exchange contribution

 Parameters of functionals:
   PE:
     No parameter
 
 Van der Waals corrections
   IVDW    =     0    specifies the selected vdW correction

 Linear response parameters
   LEPSILON=     F    determine dielectric tensor
   LRPA    =     F    only Hartree local field effects (RPA)
   LNABLA  =     F    use nabla operator in PAW spheres
   LVEL    =     F    velocity operator in full k-point grid
   CSHIFT  =0.1000    complex shift for real part using Kramers Kronig
   OMEGAMAX=  -1.0    maximum frequency
   DEG_THRESHOLD= 0.2000000E-02 threshold for treating states as degnerate
   RTIME   =   -0.100 relaxation time in fs
  (WPLASMAI=    0.000 imaginary part of plasma frequency in eV, 0.658/RTIME)
   DFIELD  = 0.0000000 0.0000000 0.0000000 field for delta impulse in time
 
  Optional k-point grid parameters
   LKPOINTS_OPT  =     T    use optional k-point grid
   KPOINTS_OPT_MODE=     1    mode for optional k-point grid
 
 Orbital magnetization related:
   ORBITALMAG=     F  switch on orbital magnetization
   LCHIMAG   =     F  perturbation theory with respect to B field
   DQ        =  0.001000  dq finite difference perturbation B field
   LLRAUG    =     F  two centre corrections for induced B field
   LBONE     =     F  B-component reconstruction in AE one-centre
   LVGVCALC  =     T  calculate vGv susceptibility
   LVGVAPPL  =     F  apply vGv susceptibility instead of pGv for G=0

 Random number generation:
   RANDOM_GENERATOR = DEFAULT
   PCG_SEED         = not used


--------------------------------------------------------------------------------------------------------


 Static calculation
 charge density and potential will be updated during run
 non-spin polarized calculation
 Variant of blocked Davidson
 Davidson routine will perform the subspace rotation
 perform sub-space diagonalisation
    after iterative eigenvector-optimisation
 modified Broyden-mixing scheme, WC =      100.0
 initial mixing is a Kerker type mixing with AMIX =  0.4000 and BMIX =      1.0000
 Hartree-type preconditioning will be used
 using additional bands           44
 reciprocal scheme for non local part
 use partial core corrections
 calculate Harris-corrections to forces 
   (improved forces if not selfconsistent)
 use gradient corrections 
 use of overlap-Matrix (Vanderbilt PP)
 Gauss-broadening in eV      SIGMA  =   0.05


--------------------------------------------------------------------------------------------------------


  energy-cutoff  :      318.95
  volume of cell :       40.89
      direct lattice vectors                 reciprocal lattice vectors
     3.348998179  0.000000000  1.933545000     0.298596758 -0.105569896  0.000000000
     1.116332726  3.157465763  1.933545000     0.000000000  0.316709689  0.000000000
     0.000000000  0.000000000  3.867090000    -0.149298379 -0.105569896  0.258592378

  length of vectors
     3.867090000  3.867090000  3.867090000     0.316709689  0.316709689  0.316709689


 
 old parameters found on file WAVECAR:
  energy-cutoff  :      318.95
  volume of cell :       40.89
      direct lattice vectors                 reciprocal lattice vectors
     3.348998179  0.000000000  1.933545000     0.298596758 -0.105569896  0.000000000
     1.116332726  3.157465763  1.933545000     0.000000000  0.316709689  0.000000000
     0.000000000  0.000000000  3.867090000    -0.149298379 -0.105569896  0.258592378

  length of vectors

 
 k-points in units of 2pi/SCALE and weight: Automatic kpoint scheme                 
   0.00000000  0.00000000  0.00000000       0.002
   0.03732459 -0.01319624  0.00000000       0.016
   0.07464919 -0.02639247  0.00000000       0.016
   0.11197378 -0.03958871  0.00000000       0.016
   0.14929838 -0.05278495  0.00000000       0.008
   0.03732459  0.02639247  0.00000000       0.012
   0.07464919  0.01319624  0.00000000       0.047
   0.11197378 -0.00000000  0.00000000       0.047
   0.14929838 -0.01319624  0.00000000       0.047
  -0.11197378  0.07917742  0.00000000       0.047
  -0.07464919  0.06598119  0.00000000       0.047
  -0.03732459  0.05278495  0.00000000       0.023
   0.07464919  0.05278495  0.00000000       0.012
   0.11197378  0.03958871  0.00000000       0.047
   0.14929838  0.02639247  0.00000000       0.047
  -0.11197378  0.11876613  0.00000000       0.047
  -0.07464919  0.10556990  0.00000000       0.023
   0.11197378  0.07917742  0.00000000       0.012
   0.14929838  0.06598119  0.00000000       0.047
  -0.11197378  0.15835484  0.00000000       0.023
   0.14929838  0.10556990  0.00000000       0.006
   0.09331149  0.02639247  0.03232405       0.047
   0.13063608  0.01319624  0.03232405       0.094
  -0.13063608  0.10556990  0.03232405       0.047
   0.13063608  0.05278495  0.03232405       0.047
  -0.13063608  0.14515861  0.03232405       0.094
  -0.09331149  0.13196237  0.03232405       0.047
  -0.13063608  0.18474732  0.03232405       0.023
  -0.11197378  0.15835484  0.06464809       0.012
 
 k-points in reciprocal lattice and weights: Automatic kpoint scheme                 
   0.00000000  0.00000000  0.00000000       0.002
   0.12500000 -0.00000000  0.00000000       0.016
   0.25000000 -0.00000000  0.00000000       0.016
   0.37500000 -0.00000000  0.00000000       0.016
   0.50000000 -0.00000000  0.00000000       0.008
   0.12500000  0.12500000  0.00000000       0.012
   0.25000000  0.12500000  0.00000000       0.047
   0.37500000  0.12500000  0.00000000       0.047
   0.50000000  0.12500000  0.00000000       0.047
  -0.37500000  0.12500000  0.00000000       0.047
  -0.25000000  0.12500000  0.00000000       0.047
  -0.12500000  0.12500000  0.00000000       0.023
   0.25000000  0.25000000  0.00000000       0.012
   0.37500000  0.25000000  0.00000000       0.047
   0.50000000  0.25000000  0.00000000       0.047
  -0.37500000  0.25000000  0.00000000       0.047
  -0.25000000  0.25000000  0.00000000       0.023
   0.37500000  0.37500000  0.00000000       0.012
   0.50000000  0.37500000  0.00000000       0.047
  -0.37500000  0.37500000  0.00000000       0.023
   0.50000000  0.50000000  0.00000000       0.006
   0.37500000  0.25000000  0.12500000       0.047
   0.50000000  0.25000000  0.12500000       0.094
  -0.37500000  0.25000000  0.12500000       0.047
   0.50000000  0.37500000  0.12500000       0.047
  -0.37500000  0.37500000  0.12500000       0.094
  -0.25000000  0.37500000  0.12500000       0.047
  -0.37500000  0.50000000  0.12500000       0.023
  -0.25000000  0.50000000  0.25000000       0.012
 
 position of ions in fractional coordinates (direct lattice) 
   0.00000000  0.00000000  0.00000000
   0.25000000  0.25000000  0.25000000
 
 position of ions in cartesian coordinates  (Angst):
   0.00000000  0.00000000  0.00000000
   1.11633273  0.78936644  1.93354500
 


--------------------------------------------------------------------------------------------------------


 k-point     1 :   0.0000 0.0000 0.0000  plane waves:     531
 k-point     2 :   0.1250-0.0000 0.0000  plane waves:     534
 k-point     3 :   0.2500-0.0000 0.0000  plane waves:     531
 k-point     4 :   0.3750-0.0000 0.0000  plane waves:     528
 k-point     5 :   0.5000-0.0000 0.0000  plane waves:     544
 k-point     6 :   0.1250 0.1250 0.0000  plane waves:     532
 k-point     7 :   0.2500 0.1250 0.0000  plane waves:     531
 k-point     8 :   0.3750 0.1250 0.0000  plane waves:     537
 k-point     9 :   0.5000 0.1250 0.0000  plane waves:     530
 k-point    10 :  -0.3750 0.1250 0.0000  plane waves:     528
 k-point    11 :  -0.2500 0.1250 0.0000  plane waves:     531
 k-point    12 :  -0.1250 0.1250 0.0000  plane waves:     537
 k-point    13 :   0.2500 0.2500 0.0000  plane waves:     528
 k-point    14 :   0.3750 0.2500 0.0000  plane waves:     528
 k-point    15 :   0.5000 0.2500 0.0000  plane waves:     529
 k-point    16 :  -0.3750 0.2500 0.0000  plane waves:     526
 k-point    17 :  -0.2500 0.2500 0.0000  plane waves:     524
 k-point    18 :   0.3750 0.3750 0.0000  plane waves:     528
 k-point    19 :   0.5000 0.3750 0.0000  plane waves:     523
 k-point    20 :  -0.3750 0.3750 0.0000  plane waves:     526
 k-point    21 :   0.5000 0.5000 0.0000  plane waves:     524
 k-point    22 :   0.3750 0.2500 0.1250  plane waves:     535
 k-point    23 :   0.5000 0.2500 0.1250  plane waves:     528
 k-point    24 :  -0.3750 0.2500 0.1250  plane waves:     530
 k-point    25 :   0.5000 0.3750 0.1250  plane waves:     522
 k-point    26 :  -0.3750 0.3750 0.1250  plane waves:     522
 k-point    27 :  -0.2500 0.3750 0.1250  plane waves:     525
 k-point    28 :  -0.3750 0.5000 0.1250  plane waves:     518
 k-point    29 :  -0.2500 0.5000 0.2500  plane waves:     524

 maximum and minimum number of plane-waves per node :       544      518

 maximum number of plane-waves:       544
 maximum index in each direction: 
   IXMAX=    5   IYMAX=    5   IZMAX=    5
   IXMIN=   -6   IYMIN=   -6   IZMIN=   -5


 serial   3D FFT for wavefunctions
 parallel 3D FFT for charge:
    minimum data exchange during FFTs selected (reduces bandwidth)


 total amount of memory used by VASP MPI-rank0    31762. kBytes
=======================================================================

   base      :      30000. kBytes
   nonl-proj :       1087. kBytes
   fftplans  :         78. kBytes
   grid      :        302. kBytes
   one-center:          6. kBytes
   wavefun   :        289. kBytes
 
     INWAV:  cpu time      0.0432: real time      0.0433
 Broyden mixing: mesh for mixing (old mesh)
   NGX = 11   NGY = 11   NGZ = 11
  (NGX  = 36   NGY  = 36   NGZ  = 36)
  gives a total of   1331 points

 charge density for first step will be calculated from the start-wavefunctions


--------------------------------------------------------------------------------------------------------


 Maximum index for augmentation-charges          313 (set IRDMAX)


--------------------------------------------------------------------------------------------------------


 initial charge from wavefunction
 First call to EWALD:  gamma=   0.514
 Maximum number of real-space cells 3x 3x 3
 Maximum number of reciprocal cells 3x 3x 3

    FEWALD:  cpu time      0.0014: real time      0.0014


--------------------------------------- Ionic step        1  -------------------------------------------




--------------------------------------- Iteration      1(   1)  ---------------------------------------


    POTLOK:  cpu time      0.0027: real time      0.0045
    SETDIJ:  cpu time      0.0013: real time      0.0013
     EDDAV:  cpu time      0.1903: real time      0.1906
       DOS:  cpu time      0.0012: real time      0.0013
    CHARGE:  cpu time      0.0032: real time      0.0033
    MIXING:  cpu time      0.0007: real time      0.0010
    --------------------------------------------
      LOOP:  cpu time      0.1995: real time      0.2019

 eigenvalue-minimisations  :  1440
 total energy-change (2. order) :-0.1084198E+02  (-0.1027630E-06)
 number of electron       7.9999992 magnetization 
 augmentation part       -0.4579617 magnetization 

 Broyden mixing:
  rms(total) = 0.74960E-04    rms(broyden)= 0.74960E-04
  rms(prec ) = 0.96146E-04
  weight for this iteration     100.00

 Free energy of the ion-electron system (eV)
  ---------------------------------------------------
  alpha Z        PSCENC =         3.29288569
  Ewald energy   TEWEN  =      -226.93813280
  -Hartree energ DENC   =       -15.18321176
  -exchange      EXHF   =         0.00000000
  -V(xc)+E(xc)   XCENC  =       -18.05688859
  PAW double counting   =       854.88318322     -819.90382248
  entropy T*S    EENTRO =        -0.00000000
  eigenvalues    EBANDS =         4.93337956
  atomic energy  EATOM  =       206.13062786
  Solvation  Ediel_sol  =         0.00000000
  ---------------------------------------------------
  free energy    TOTEN  =       -10.84197931 eV

  energy without entropy =      -10.84197931  energy(sigma->0) =      -10.84197931


--------------------------------------------------------------------------------------------------------




--------------------------------------- Iteration      1(   2)  ---------------------------------------


    POTLOK:  cpu time      0.0021: real time      0.0038
    SETDIJ:  cpu time      0.0012: real time      0.0012
     EDDAV:  cpu time      0.1778: real time      0.1778
       DOS:  cpu time      0.0002: real time      0.0002
    --------------------------------------------
      LOOP:  cpu time      0.1814: real time      0.1830

 eigenvalue-minimisations  :  1392
 total energy-change (2. order) : 0.7301821E-09  (-0.6188293E-09)
 number of electron       7.9999992 magnetization 
 augmentation part       -0.4579617 magnetization 

 Free energy of the ion-electron system (eV)
  ---------------------------------------------------
  alpha Z        PSCENC =         3.29288569
  Ewald energy   TEWEN  =      -226.93813280
  -Hartree energ DENC   =       -15.18320965
  -exchange      EXHF   =         0.00000000
  -V(xc)+E(xc)   XCENC  =       -18.05688051
  PAW double counting   =       854.93884217     -819.95947336
  entropy T*S    EENTRO =        -0.00000000
  eigenvalues    EBANDS =         4.93336129
  atomic energy  EATOM  =       206.13062786
  Solvation  Ediel_sol  =         0.00000000
  ---------------------------------------------------
  free energy    TOTEN  =       -10.84197931 eV

  energy without entropy =      -10.84197931  energy(sigma->0) =      -10.84197931


--------------------------------------------------------------------------------------------------------




 average (electrostatic) potential at core
  the test charge radii are     0.9892
  (the norm of the test charge is              1.0000)
       1 -83.4814       2 -83.4814
 
 
 
 E-fermi :   5.8933     XC(G=0):  -9.3263     alpha+bet :-11.7307

 val. band max:        5.6179711887   @ k =   0.0000   0.0000   0.0000
 cond. band min:       6.2696717881   @ k =   0.3750   0.3750   0.0000
 fundamental gap:      0.6517005993
 Fermi energy:         5.8932853740

 k-point     1 :       0.0000    0.0000    0.0000
  band No.  band energies     occupation 
      1      -6.1978      2.00000
      2       5.6180      2.00000
      3       5.6180      2.00000
      4       5.6180      2.00000
      5       8.1761      0.00000
      6       8.1761      0.00000
      7       8.1761      0.00000
      8       8.7495      0.00000
      9      13.3423      0.00000
     10      13.3423      0.00000
     11      13.4942      0.00000
     12      16.8027      0.00000
     13      16.8027      0.00000
     14      16.8027      0.00000
     15      20.8907      0.00000
     16      28.5081      0.00000
     17      28.5081      0.00000
     18      28.5081      0.00000
     19      29.6166      0.00000
     20      29.6166      0.00000
     21      31.0219      0.00000
     22      31.0219      0.00000
     23      31.0219      0.00000
     24      34.5382      0.00000
     25      34.5382      0.00000
     26      34.5382      0.00000
     27      40.2228      0.00000
     28      40.2228      0.00000
     29      40.2228      0.00000
     30      43.4201      0.00000
     31      43.9905      0.00000
     32      43.9905      0.00000
     33      45.8312      0.00000
     34      45.8312      0.00000
     35      47.2885      0.00000
     36      47.2885      0.00000
     37      47.2885      0.00000
     38      49.0447      0.00000
     39      49.0447      0.00000
     40      49.0447      0.00000
     41      49.5401      0.00000
     42      50.1077      0.00000
     43      50.1077      0.00000
     44      50.1077      0.00000
     45      50.1121      0.00000
     46      50.1121      0.00000
     47      50.1121      0.00000
     48      51.5188      0.00000

 k-point     2 :       0.1250   -0.0000    0.0000
  band No.  band energies     occupation 
      1      -5.9973      2.00000
      2       4.0269      2.00000
      3       5.3355      2.00000
      4       5.3355      2.00000
      5       8.0618      0.00000
      6       8.5918      0.00000
      7       8.5918      0.00000
      8      10.1497      0.00000
      9      12.8669      0.00000
     10      12.8669      0.00000
     11      14.2701      0.00000
     12      16.2486      0.00000
     13      17.9515      0.00000
     14      17.9515      0.00000
     15      22.1066      0.00000
     16      26.4925      0.00000
     17      26.4925      0.00000
     18      26.7677      0.00000
     19      29.2607      0.00000
     20      29.2608      0.00000
     21      31.5685      0.00000
     22      31.5685      0.00000
     23      32.4772      0.00000
     24      34.7205      0.00000
     25      36.6996      0.00000
     26      36.6997      0.00000
     27      37.8354      0.00000
     28      39.6847      0.00000
     29      39.6847      0.00000
     30      42.0745      0.00000
     31      42.0745      0.00000
     32      43.8634      0.00000
     33      43.8634      0.00000
     34      43.9852      0.00000
     35      46.9999      0.00000
     36      46.9999      0.00000
     37      47.0066      0.00000
     38      47.3545      0.00000
     39      48.4028      0.00000
     40      49.0642      0.00000
     41      49.0642      0.00000
     42      49.5561      0.00000
     43      49.9033      0.00000
     44      49.9033      0.00000
     45      51.3232      0.00000
     46      52.2151      0.00000
     47      52.3424      0.00000
     48      52.3424      0.00000

 k-point     3 :       0.2500   -0.0000    0.0000
  band No.  band energies     occupation 
      1      -5.4129      2.00000
      2       1.7310      2.00000
      3       4.8726      2.00000
      4       4.8726      2.00000
      5       7.5779      0.00000
      6       9.1109      0.00000
      7       9.1109      0.00000
      8      12.3691      0.00000
      9      12.8158      0.00000
     10      12.8158      0.00000
     11      14.5481      0.00000
     12      17.3315      0.00000
     13      20.1476      0.00000
     14      20.1476      0.00000
     15      23.3171      0.00000
     16      23.3171      0.00000
     17      23.3977      0.00000
     18      25.4909      0.00000
     19      29.4415      0.00000
     20      29.4416      0.00000
     21      31.9274      0.00000
     22      31.9274      0.00000
     23      33.2168      0.00000
     24      34.7421      0.00000
     25      35.2322      0.00000
     26      37.1401      0.00000
     27      37.1401      0.00000
     28      38.8334      0.00000
     29      38.8334      0.00000
     30      39.7145      0.00000
     31      39.7145      0.00000
     32      43.4249      0.00000
     33      43.4249      0.00000
     34      43.5504      0.00000
     35      44.0084      0.00000
     36      44.5727      0.00000
     37      46.4483      0.00000
     38      46.4483      0.00000
     39      48.6229      0.00000
     40      49.0117      0.00000
     41      49.0117      0.00000
     42      49.3265      0.00000
     43      49.6159      0.00000
     44      52.1800      0.00000
     45      52.1801      0.00000
     46      54.6790      0.00000
     47      54.6790      0.00000
     48      55.8568      0.00000

 k-point     4 :       0.3750   -0.0000    0.0000
  band No.  band energies     occupation 
      1      -4.5383      2.00000
      2      -0.2534      2.00000
      3       4.5496      2.00000
      4       4.5496      2.00000
      5       7.2137      0.00000
      6       9.0745      0.00000
      7       9.0745      0.00000
      8      13.4564      0.00000
      9      14.1675      0.00000
     10      14.1675      0.00000
     11      15.1312      0.00000
     12      19.2596      0.00000
     13      19.2596      0.00000
     14      19.4791      0.00000
     15      22.1017      0.00000
     16      24.0041      0.00000
     17      24.0041      0.00000
     18      28.3837      0.00000
     19      29.2561      0.00000
     20      29.2755      0.00000
     21      29.2756      0.00000
     22      32.1180      0.00000
     23      32.1180      0.00000
     24      33.6674      0.00000
     25      33.6674      0.00000
     26      35.1748      0.00000
     27      35.9089      0.00000
     28      37.9001      0.00000
     29      37.9001      0.00000
     30      38.8345      0.00000
     31      38.8345      0.00000
     32      39.9555      0.00000
     33      42.5168      0.00000
     34      42.7410      0.00000
     35      46.0314      0.00000
     36      46.0314      0.00000
     37      46.9670      0.00000
     38      46.9671      0.00000
     39      48.1070      0.00000
     40      49.0448      0.00000
     41      49.2138      0.00000
     42      49.2138      0.00000
     43      52.0113      0.00000
     44      54.0132      0.00000
     45      54.0133      0.00000
     46      56.3865      0.00000
     47      56.3865      0.00000
     48      58.0133      0.00000

 k-point     5 :       0.5000   -0.0000    0.0000
  band No.  band energies     occupation 
      1      -3.9190      2.00000
      2      -1.2517      2.00000
      3       4.4388      2.00000
      4       4.4388      2.00000
      5       7.0846      0.00000
      6       8.9695      0.00000
      7       8.9695      0.00000
      8      13.3204      0.00000
      9      16.1339      0.00000
     10      16.1339      0.00000
     11      16.8009      0.00000
     12      16.8424      0.00000
     13      16.8424      0.00000
     14      18.3560      0.00000
     15      24.7791      0.00000
     16      25.3774      0.00000
     17      27.0855      0.00000
     18      27.0855      0.00000
     19      27.2202      0.00000
     20      27.2203      0.00000
     21      31.0812      0.00000
     22      31.7970      0.00000
     23      31.7970      0.00000
     24      32.7248      0.00000
     25      32.7248      0.00000
     26      33.6689      0.00000
     27      36.2855      0.00000
     28      37.6736      0.00000
     29      37.6736      0.00000
     30      38.1788      0.00000
     31      38.1788      0.00000
     32      39.1184      0.00000
     33      41.6810      0.00000
     34      41.9353      0.00000
     35      46.0464      0.00000
     36      46.0465      0.00000
     37      47.7686      0.00000
     38      47.7686      0.00000
     39      47.9817      0.00000
     40      48.8989      0.00000
     41      51.7426      0.00000
     42      51.7428      0.00000
     43      53.5494      0.00000
     44      53.5495      0.00000
     45      54.2395      0.00000
     46      57.4987      0.00000
     47      57.7284      0.00000
     48      57.7285      0.00000

 k-point     6 :       0.1250    0.1250    0.0000
  band No.  band energies     occupation 
      1      -5.9297      2.00000
      2       4.2655      2.00000
      3       4.8312      2.00000
      4       4.8312      2.00000
      5       7.6349      0.00000
      6       9.2917      0.00000
      7       9.2917      0.00000
      8       9.8373      0.00000
      9      12.1114      0.00000
     10      13.6408      0.00000
     11      14.5646      0.00000
     12      17.2700      0.00000
     13      17.2700      0.00000
     14      17.7522      0.00000
     15      22.6852      0.00000
     16      26.0074      0.00000
     17      26.0074      0.00000
     18      27.2606      0.00000
     19      28.0189      0.00000
     20      28.8676      0.00000
     21      31.8371      0.00000
     22      32.1590      0.00000
     23      32.1590      0.00000
     24      36.4936      0.00000
     25      36.4936      0.00000
     26      37.0178      0.00000
     27      38.4485      0.00000
     28      38.4485      0.00000
     29      38.5757      0.00000
     30      40.6990      0.00000
     31      42.3459      0.00000
     32      43.3922      0.00000
     33      44.8646      0.00000
     34      45.5981      0.00000
     35      45.7263      0.00000
     36      45.7263      0.00000
     37      46.9220      0.00000
     38      47.3240      0.00000
     39      47.3240      0.00000
     40      48.6763      0.00000
     41      48.6763      0.00000
     42      49.7482      0.00000
     43      51.2896      0.00000
     44      51.6254      0.00000
     45      52.3851      0.00000
     46      52.3851      0.00000
     47      52.8175      0.00000
     48      53.2887      0.00000

 k-point     7 :       0.2500    0.1250    0.0000
  band No.  band energies     occupation 
      1      -5.4696      2.00000
      2       2.4116      2.00000
      3       4.3288      2.00000
      4       4.3924      2.00000
      5       7.7646      0.00000
      6       9.2441      0.00000
      7      10.0488      0.00000
      8      10.3606      0.00000
      9      12.9820      0.00000
     10      13.8005      0.00000
     11      15.5539      0.00000
     12      17.1192      0.00000
     13      18.6694      0.00000
     14      19.9194      0.00000
     15      23.0492      0.00000
     16      23.5083      0.00000
     17      24.7044      0.00000
     18      26.9531      0.00000
     19      26.9843      0.00000
     20      28.4234      0.00000
     21      31.5987      0.00000
     22      32.5527      0.00000
     23      33.5982      0.00000
     24      35.1504      0.00000
     25      36.7564      0.00000
     26      37.0417      0.00000
     27      37.4011      0.00000
     28      38.2424      0.00000
     29      38.8121      0.00000
     30      39.5012      0.00000
     31      41.0118      0.00000
     32      41.0917      0.00000
     33      43.5263      0.00000
     34      43.9613      0.00000
     35      45.3634      0.00000
     36      45.3804      0.00000
     37      45.8381      0.00000
     38      47.1771      0.00000
     39      48.5115      0.00000
     40      48.6691      0.00000
     41      49.7577      0.00000
     42      49.7638      0.00000
     43      50.3597      0.00000
     44      50.8991      0.00000
     45      52.3121      0.00000
     46      53.0743      0.00000
     47      54.1765      0.00000
     48      54.4868      0.00000

 k-point     8 :       0.3750    0.1250    0.0000
  band No.  band energies     occupation 
      1      -4.6710      2.00000
      2       0.3895      2.00000
      3       3.8088      2.00000
      4       4.0635      2.00000
      5       7.8476      0.00000
      6       9.2127      0.00000
      7      10.0632      0.00000
      8      11.0605      0.00000
      9      14.8990      0.00000
     10      14.9031      0.00000
     11      15.4106      0.00000
     12      18.9027      0.00000
     13      18.9068      0.00000
     14      20.6771      0.00000
     15      22.1640      0.00000
     16      23.0792      0.00000
     17      24.0456      0.00000
     18      27.2941      0.00000
     19      27.9975      0.00000
     20      28.9692      0.00000
     21      30.1343      0.00000
     22      30.9195      0.00000
     23      32.8168      0.00000
     24      34.3821      0.00000
     25      35.4394      0.00000
     26      35.6318      0.00000
     27      35.8327      0.00000
     28      36.9964      0.00000
     29      38.0107      0.00000
     30      38.5350      0.00000
     31      40.1216      0.00000
     32      41.4732      0.00000
     33      42.9979      0.00000
     34      43.0410      0.00000
     35      44.2338      0.00000
     36      44.7590      0.00000
     37      47.3462      0.00000
     38      47.6192      0.00000
     39      47.8848      0.00000
     40      49.3039      0.00000
     41      50.3005      0.00000
     42      50.5521      0.00000
     43      51.7665      0.00000
     44      52.0920      0.00000
     45      54.1266      0.00000
     46      54.5075      0.00000
     47      54.7798      0.00000
     48      56.9687      0.00000

 k-point     9 :       0.5000    0.1250    0.0000
  band No.  band energies     occupation 
      1      -3.8320      2.00000
      2      -1.0410      2.00000
      3       3.3718      2.00000
      4       4.0855      2.00000
      5       7.7826      0.00000
      6       9.1095      0.00000
      7       9.7157      0.00000
      8      12.9269      0.00000
      9      14.5666      0.00000
     10      16.0529      0.00000
     11      17.0241      0.00000
     12      17.1670      0.00000
     13      17.9483      0.00000
     14      20.4636      0.00000
     15      23.7434      0.00000
     16      25.1030      0.00000
     17      25.7264      0.00000
     18      26.5005      0.00000
     19      27.3498      0.00000
     20      27.7182      0.00000
     21      30.0611      0.00000
     22      31.3703      0.00000
     23      31.7410      0.00000
     24      32.8848      0.00000
     25      33.4383      0.00000
     26      34.9803      0.00000
     27      35.2667      0.00000
     28      35.6538      0.00000
     29      38.1117      0.00000
     30      38.4246      0.00000
     31      39.0891      0.00000
     32      40.1976      0.00000
     33      42.5105      0.00000
     34      42.7684      0.00000
     35      43.9258      0.00000
     36      45.7462      0.00000
     37      46.4301      0.00000
     38      49.0099      0.00000
     39      49.4244      0.00000
     40      50.7892      0.00000
     41      51.6202      0.00000
     42      52.6200      0.00000
     43      53.2983      0.00000
     44      53.3064      0.00000
     45      53.6163      0.00000
     46      54.3791      0.00000
     47      55.9346      0.00000
     48      58.0737      0.00000

 k-point    10 :      -0.3750    0.1250    0.0000
  band No.  band energies     occupation 
      1      -4.0693      2.00000
      2      -0.6798      2.00000
      3       3.1966      2.00000
      4       4.3748      2.00000
      5       7.9318      0.00000
      6       9.2288      0.00000
      7       9.4854      0.00000
      8      13.4482      0.00000
      9      13.6866      0.00000
     10      14.7591      0.00000
     11      16.7023      0.00000
     12      17.9113      0.00000
     13      19.7663      0.00000
     14      20.1080      0.00000
     15      22.3293      0.00000
     16      24.0931      0.00000
     17      25.9446      0.00000
     18      27.5549      0.00000
     19      27.8173      0.00000
     20      27.9550      0.00000
     21      30.0890      0.00000
     22      30.5147      0.00000
     23      32.7482      0.00000
     24      32.8262      0.00000
     25      33.2101      0.00000
     26      34.5086      0.00000
     27      35.5916      0.00000
     28      36.6237      0.00000
     29      38.5389      0.00000
     30      38.8554      0.00000
     31      38.9275      0.00000
     32      40.2238      0.00000
     33      42.5257      0.00000
     34      43.1212      0.00000
     35      44.2006      0.00000
[...]
     19      27.0908      0.00000
     20      28.8335      0.00000
     21      30.5976      0.00000
     22      31.4312      0.00000
     23      33.2124      0.00000
     24      34.1561      0.00000
     25      34.9113      0.00000
     26      36.7759      0.00000
     27      36.9508      0.00000
     28      37.2400      0.00000
     29      39.1690      0.00000
     30      39.2416      0.00000
     31      40.7270      0.00000
     32      40.7880      0.00000
     33      41.8577      0.00000
     34      44.4228      0.00000
     35      45.3132      0.00000
     36      45.4211      0.00000
     37      45.8449      0.00000
     38      46.8264      0.00000
     39      47.7918      0.00000
     40      48.6888      0.00000
     41      50.0600      0.00000
     42      50.2261      0.00000
     43      51.7935      0.00000
     44      52.6392      0.00000
     45      52.7707      0.00000
     46      54.2236      0.00000
     47      54.8383      0.00000
     48      55.5838      0.00000

 k-point    23 :       0.5000    0.2500    0.1250
  band No.  band energies     occupation 
      1      -4.0233      2.00000
      2      -0.1706      2.00000
      3       2.3612      2.00000
      4       3.7298      2.00000
      5       8.4844      0.00000
      6       9.1506      0.00000
      7      10.5990      0.00000
      8      11.5012      0.00000
      9      14.5580      0.00000
     10      15.2521      0.00000
     11      17.5293      0.00000
     12      18.3790      0.00000
     13      19.7026      0.00000
     14      20.6246      0.00000
     15      22.7285      0.00000
     16      23.6424      0.00000
     17      24.4353      0.00000
     18      26.4125      0.00000
     19      27.2308      0.00000
     20      28.2046      0.00000
     21      29.6157      0.00000
     22      31.0855      0.00000
     23      31.3833      0.00000
     24      32.5581      0.00000
     25      34.1248      0.00000
     26      34.9234      0.00000
     27      36.5109      0.00000
     28      36.6318      0.00000
     29      37.7401      0.00000
     30      38.4885      0.00000
     31      40.1801      0.00000
     32      41.1652      0.00000
     33      41.6725      0.00000
     34      44.1818      0.00000
     35      44.5311      0.00000
     36      46.1689      0.00000
     37      46.7720      0.00000
     38      47.4549      0.00000
     39      48.3886      0.00000
     40      50.0952      0.00000
     41      50.5988      0.00000
     42      51.6972      0.00000
     43      52.5454      0.00000
     44      53.2032      0.00000
     45      54.2233      0.00000
     46      55.5679      0.00000
     47      56.3885      0.00000
     48      56.8275      0.00000

 k-point    24 :      -0.3750    0.2500    0.1250
  band No.  band energies     occupation 
      1      -3.3891      2.00000
      2      -1.0902      2.00000
      3       2.2297      2.00000
      4       3.5067      2.00000
      5       8.6439      0.00000
      6       8.7673      0.00000
      7      11.4692      0.00000
      8      12.6914      0.00000
      9      12.9289      0.00000
     10      16.1392      0.00000
     11      17.1789      0.00000
     12      17.8991      0.00000
     13      20.9144      0.00000
     14      21.0420      0.00000
     15      23.5497      0.00000
     16      23.8966      0.00000
     17      24.9105      0.00000
     18      26.2315      0.00000
     19      26.3874      0.00000
     20      27.4074      0.00000
     21      30.3671      0.00000
     22      30.7570      0.00000
     23      30.8272      0.00000
     24      31.6095      0.00000
     25      33.6470      0.00000
     26      35.0031      0.00000
     27      35.2738      0.00000
     28      36.3819      0.00000
     29      37.2010      0.00000
     30      37.7654      0.00000
     31      39.9213      0.00000
     32      40.5585      0.00000
     33      41.8710      0.00000
     34      44.0329      0.00000
     35      45.0226      0.00000
     36      46.0094      0.00000
     37      47.8296      0.00000
     38      48.5071      0.00000
     39      49.1332      0.00000
     40      50.2982      0.00000
     41      51.1760      0.00000
     42      51.2514      0.00000
     43      53.5168      0.00000
     44      53.6243      0.00000
     45      55.5121      0.00000
     46      55.5941      0.00000
     47      56.3776      0.00000
     48      58.4539      0.00000

 k-point    25 :       0.5000    0.3750    0.1250
  band No.  band energies     occupation 
      1      -3.6533      2.00000
      2      -0.3103      2.00000
      3       2.3294      2.00000
      4       2.9214      2.00000
      5       7.5757      0.00000
      6       8.2790      0.00000
      7      11.3075      0.00000
      8      13.5132      0.00000
      9      15.6854      0.00000
     10      15.7384      0.00000
     11      18.3139      0.00000
     12      18.8309      0.00000
     13      19.6945      0.00000
     14      20.1488      0.00000
     15      22.1249      0.00000
     16      22.5403      0.00000
     17      25.0041      0.00000
     18      25.3543      0.00000
     19      27.2288      0.00000
     20      27.2916      0.00000
     21      28.8420      0.00000
     22      29.5990      0.00000
     23      31.6194      0.00000
     24      32.9094      0.00000
     25      33.5588      0.00000
     26      34.4796      0.00000
     27      37.0521      0.00000
     28      37.9163      0.00000
     29      37.9994      0.00000
     30      38.5024      0.00000
     31      39.1583      0.00000
     32      42.6608      0.00000
     33      43.5813      0.00000
     34      43.8804      0.00000
     35      45.5610      0.00000
     36      45.8426      0.00000
     37      46.6725      0.00000
     38      47.1808      0.00000
     39      47.9545      0.00000
     40      48.8349      0.00000
     41      50.7947      0.00000
     42      51.3978      0.00000
     43      51.6444      0.00000
     44      53.3090      0.00000
     45      53.3202      0.00000
     46      55.4662      0.00000
     47      55.9441      0.00000
     48      57.1453      0.00000

 k-point    26 :      -0.3750    0.3750    0.1250
  band No.  band energies     occupation 
      1      -2.7997      2.00000
      2      -1.2588      2.00000
      3       1.6491      2.00000
      4       2.7253      2.00000
      5       8.0156      0.00000
      6       9.8908      0.00000
      7      10.8343      0.00000
      8      12.9752      0.00000
      9      13.9342      0.00000
     10      16.5926      0.00000
     11      17.7015      0.00000
     12      19.8094      0.00000
     13      20.8249      0.00000
     14      21.4261      0.00000
     15      22.9986      0.00000
     16      23.8132      0.00000
     17      24.1355      0.00000
     18      24.8163      0.00000
     19      26.5038      0.00000
     20      27.1464      0.00000
     21      28.1390      0.00000
     22      29.5595      0.00000
     23      30.3626      0.00000
     24      32.9004      0.00000
     25      33.4866      0.00000
     26      34.2347      0.00000
     27      36.0165      0.00000
     28      36.6349      0.00000
     29      37.2986      0.00000
     30      37.8333      0.00000
     31      39.7791      0.00000
     32      41.7531      0.00000
     33      43.5310      0.00000
     34      44.4703      0.00000
     35      45.0092      0.00000
     36      46.0946      0.00000
     37      47.5063      0.00000
     38      47.9663      0.00000
     39      48.3401      0.00000
     40      50.2638      0.00000
     41      50.9054      0.00000
     42      51.8726      0.00000
     43      53.2156      0.00000
     44      54.1299      0.00000
     45      54.6433      0.00000
     46      56.2022      0.00000
     47      56.8725      0.00000
     48      57.8456      0.00000

 k-point    27 :      -0.2500    0.3750    0.1250
  band No.  band energies     occupation 
      1      -3.1434      2.00000
      2      -0.9009      2.00000
      3       1.4867      2.00000
      4       3.0921      2.00000
      5       8.4854      0.00000
      6      10.1362      0.00000
      7      10.7876      0.00000
      8      12.5866      0.00000
      9      13.3900      0.00000
     10      14.7737      0.00000
     11      19.5777      0.00000
     12      19.7635      0.00000
     13      20.0976      0.00000
     14      21.7254      0.00000
     15      21.9793      0.00000
     16      23.7885      0.00000
     17      24.5934      0.00000
     18      25.3652      0.00000
     19      26.5609      0.00000
     20      27.5233      0.00000
     21      28.6808      0.00000
     22      29.9235      0.00000
     23      31.2376      0.00000
     24      32.6913      0.00000
     25      33.4291      0.00000
     26      34.4940      0.00000
     27      34.5755      0.00000
     28      36.5050      0.00000
     29      36.8614      0.00000
     30      38.0375      0.00000
     31      40.3932      0.00000
     32      42.7185      0.00000
     33      42.8812      0.00000
     34      43.7010      0.00000
     35      44.4878      0.00000
     36      45.5124      0.00000
     37      47.7088      0.00000
     38      48.8393      0.00000
     39      48.8946      0.00000
     40      49.6353      0.00000
     41      50.5995      0.00000
     42      52.2036      0.00000
     43      53.5258      0.00000
     44      53.7474      0.00000
     45      55.0621      0.00000
     46      56.2061      0.00000
     47      57.2309      0.00000
     48      58.1023      0.00000

 k-point    28 :      -0.3750    0.5000    0.1250
  band No.  band energies     occupation 
      1      -2.0554      2.00000
      2      -2.0554      2.00000
      3       2.2780      2.00000
      4       2.2780      2.00000
      5       7.6062      0.00000
      6       7.6062      0.00000
      7      13.3757      0.00000
      8      13.3757      0.00000
      9      16.0846      0.00000
     10      16.0846      0.00000
     11      18.3522      0.00000
     12      18.3522      0.00000
     13      21.0139      0.00000
     14      21.0139      0.00000
     15      22.8673      0.00000
     16      22.8673      0.00000
     17      24.5077      0.00000
     18      24.5077      0.00000
     19      27.1025      0.00000
     20      27.1025      0.00000
     21      28.4293      0.00000
     22      28.4293      0.00000
     23      29.4670      0.00000
     24      29.4670      0.00000
     25      35.6091      0.00000
     26      35.6091      0.00000
     27      37.3900      0.00000
     28      37.3901      0.00000
     29      37.7824      0.00000
     30      37.7824      0.00000
     31      41.5891      0.00000
     32      41.5891      0.00000
     33      43.2618      0.00000
     34      43.2618      0.00000
     35      45.1959      0.00000
     36      45.1959      0.00000
     37      47.1046      0.00000
     38      47.1046      0.00000
     39      48.1205      0.00000
     40      48.1206      0.00000
     41      52.2965      0.00000
     42      52.2965      0.00000
     43      53.0318      0.00000
     44      53.0318      0.00000
     45      55.9930      0.00000
     46      55.9930      0.00000
     47      57.2092      0.00000
     48      57.2092      0.00000

 k-point    29 :      -0.2500    0.5000    0.2500
  band No.  band energies     occupation 
      1      -1.9746      2.00000
      2      -1.9746      2.00000
      3       1.8561      2.00000
      4       1.8561      2.00000
      5       9.8922      0.00000
      6       9.8923      0.00000
      7      10.5521      0.00000
      8      10.5521      0.00000
      9      16.0804      0.00000
     10      16.0804      0.00000
     11      18.4998      0.00000
     12      18.4998      0.00000
     13      21.9336      0.00000
     14      21.9337      0.00000
     15      24.0252      0.00000
     16      24.0252      0.00000
     17      24.3036      0.00000
     18      24.3037      0.00000
     19      25.2327      0.00000
     20      25.2327      0.00000
     21      29.0602      0.00000
     22      29.0602      0.00000
     23      32.8444      0.00000
     24      32.8444      0.00000
     25      32.9821      0.00000
     26      32.9822      0.00000
     27      34.7014      0.00000
     28      34.7014      0.00000
     29      38.0485      0.00000
     30      38.0486      0.00000
     31      42.0034      0.00000
     32      42.0034      0.00000
     33      43.2198      0.00000
     34      43.2199      0.00000
     35      45.4086      0.00000
     36      45.4087      0.00000
     37      48.3897      0.00000
     38      48.3897      0.00000
     39      49.5670      0.00000
     40      49.5671      0.00000
     41      52.3954      0.00000
     42      52.3954      0.00000
     43      53.6131      0.00000
     44      53.6131      0.00000
     45      53.8095      0.00000
     46      53.8095      0.00000
     47      56.6355      0.00000
     48      56.6355      0.00000


--------------------------------------------------------------------------------------------------------


 soft charge-density along one line, spin component           1
         0         1         2         3         4         5         6         7         8         9
 total charge-density along one line
 
 pseudopotential strength for first ion, spin component:           1
 18.438  25.724  -0.000  -0.000  -0.000  -0.000  -0.000  -0.000
 25.724  35.894  -0.000  -0.000  -0.000  -0.000  -0.000  -0.000
 -0.000  -0.000   4.181  -0.000  -0.000   7.791  -0.000  -0.000
 -0.000  -0.000  -0.000   4.181  -0.000  -0.000   7.791  -0.000
 -0.000  -0.000  -0.000  -0.000   4.181  -0.000  -0.000   7.791
 -0.000  -0.000   7.791  -0.000  -0.000  14.529  -0.000  -0.000
 -0.000  -0.000  -0.000   7.791  -0.000  -0.000  14.529  -0.000
 -0.000  -0.000  -0.000  -0.000   7.791  -0.000  -0.000  14.529
 total augmentation occupancy for first ion, spin component:           1
  5.558  -2.078  -0.000  -0.000   0.000  -0.000  -0.000   0.000
 -2.078   0.891  -0.000   0.000  -0.000   0.000   0.000   0.000
 -0.000   0.000   2.982   0.000   0.000  -0.679  -0.000  -0.000
 -0.000  -0.000   0.000   2.982   0.000  -0.000  -0.679  -0.000
 -0.000  -0.000   0.000   0.000   2.982  -0.000  -0.000  -0.679
 -0.000   0.000  -0.679  -0.000  -0.000   0.163   0.000   0.000
 -0.000   0.000  -0.000  -0.679  -0.000   0.000   0.163   0.000
  0.000  -0.000  -0.000  -0.000  -0.679   0.000   0.000   0.163


------------------------ aborting loop because EDIFF is reached ----------------------------------------


    CHARGE:  cpu time      0.0033: real time      0.0033
    FORLOC:  cpu time      0.0001: real time      0.0002
    FORNL :  cpu time      0.0025: real time      0.0026
    STRESS:  cpu time      0.0287: real time      0.0287
    FORCOR:  cpu time      0.0018: real time      0.0019
    FORHAR:  cpu time      0.0005: real time      0.0005
    MIXING:  cpu time      0.0005: real time      0.0005
    OFIELD:  cpu time      0.0000: real time      0.0001

  FORCE on cell =-STRESS in cart. coord.  units (eV):
  Direction    XX          YY          ZZ          XY          YZ          ZX
  --------------------------------------------------------------------------------------
  Alpha Z     3.29289     3.29289     3.29289
  Ewald     -75.64608   -75.64608   -75.64608    -0.00000    -0.00000    -0.00000
  Hartree     5.06108     5.06108     5.06108     0.00000     0.00000     0.00000
  E(xc)     -25.25255   -25.25255   -25.25255    -0.00000    -0.00000    -0.00000
  Local     -29.55445   -29.55446   -29.55440     0.00002     0.00003     0.00004
  n-local    73.83372    77.17623    81.39574    -0.94220    -0.70941    -0.01031
  augment   -11.63818   -11.63817   -11.63822    -0.00001    -0.00002    -0.00003
  Kinetic    53.00797    55.07066    60.65715     0.82757     1.03569    -0.53821
  Fock        0.00000     0.00000     0.00000     0.00000     0.00000     0.00000
  -------------------------------------------------------------------------------------
  Total      -0.02345    -0.02345    -0.02345     0.00000    -0.00000     0.00000
  in kB      -0.91888    -0.91888    -0.91888     0.00000    -0.00000     0.00000
  external pressure =       -0.92 kB  Pullay stress =        0.00 kB


 VOLUME and BASIS-vectors are now :
 -----------------------------------------------------------------------------
  energy-cutoff  :      318.95
  volume of cell :       40.89
      direct lattice vectors                 reciprocal lattice vectors
     3.348998179  0.000000000  1.933545000     0.298596758 -0.105569896  0.000000000
     1.116332726  3.157465763  1.933545000     0.000000000  0.316709689  0.000000000
     0.000000000  0.000000000  3.867090000    -0.149298379 -0.105569896  0.258592378

  length of vectors
     3.867090000  3.867090000  3.867090000     0.316709689  0.316709689  0.316709689


 FORCES acting on ions
    electron-ion (+dipol)            ewald-force                    non-local-force                 convergence-correction
 -----------------------------------------------------------------------------------------------
   0.143E-05 0.101E-05 0.250E-05   0.864E-14 0.560E-14 0.114E-13   0.672E-16 0.560E-16 -.220E-16   0.262E-09 0.185E-09 0.454E-09
   -.143E-05 -.101E-05 -.250E-05   -.912E-14 -.558E-14 -.115E-13   -.655E-16 -.507E-16 0.150E-16   -.262E-09 -.185E-09 -.454E-09
 -----------------------------------------------------------------------------------------------
   -.296E-13 -.108E-13 -.534E-13   -.483E-15 0.184E-16 -.128E-15   0.167E-17 0.531E-17 -.697E-17   0.175E-14 -.371E-15 -.529E-15
 
 
 POSITION                                       TOTAL-FORCE (eV/Angst)
 -----------------------------------------------------------------------------------
      0.00000      0.00000      0.00000        -0.000000      0.000000     -0.000000
      1.11633      0.78937      1.93355         0.000000     -0.000000      0.000000
 -----------------------------------------------------------------------------------
    total drift:                               -0.000000     -0.000000     -0.000000


--------------------------------------------------------------------------------------------------------



  FREE ENERGIE OF THE ION-ELECTRON SYSTEM (eV)
  ---------------------------------------------------
  free  energy   TOTEN  =       -10.84197931 eV

  energy  without entropy=      -10.84197931  energy(sigma->0) =      -10.84197931
 


--------------------------------------------------------------------------------------------------------


    POTLOK:  cpu time      0.0030: real time      0.0030


--------------------------------------------------------------------------------------------------------


 writing wavefunctions
     LOOP+:  cpu time     17.6048: real time     17.6214
    4ORBIT:  cpu time      0.0000: real time      0.0000

 total amount of memory used by VASP MPI-rank0    31762. kBytes
=======================================================================

   base      :      30000. kBytes
   nonl-proj :       1087. kBytes
   fftplans  :         78. kBytes
   grid      :        302. kBytes
   one-center:          6. kBytes
   wavefun   :        289. kBytes
 
  
  
 General timing and accounting informations for this job:
 ========================================================
  
                  Total CPU time used (sec):       18.091
                            User time (sec):       17.702
                          System time (sec):        0.388
                         Elapsed time (sec):       18.279
  
                   Maximum memory used (kb):      188924.
                   Average memory used (kb):          N/A
  
                          Minor page faults:        19693
                          Major page faults:            0
                 Voluntary context switches:         3946
