Al                                      
   1.00000000000000     
     4.040210    0.000000    0.000000
     0.000000    4.040210    0.000000
     0.000000    0.000000    4.040210
   Al
     4
Direct
  0.000000  0.000000  0.000000
  0.000000  0.500000  0.500000
  0.500000  0.000000  0.500000
  0.500000  0.500000  0.000000
 
   36   36   36
 -.56081     -.59058E-01  1.3769      3.5395      6.0960      8.6354      10.755      12.165      12.760      12.635    
  12.022      11.157      10.231      9.3801      8.6747      8.1371      7.7655      7.5497      7.4792      7.5497    
  7.7655      8.1371      8.6747      9.3801      10.231      11.157      12.022      12.635      12.760      12.165    
  10.755      8.6354      6.0960      3.5395      1.3769     -.59058E-01 -.59058E-01 0.43484      1.8455      3.9625    
  6.4537      8.9148      10.955      12.294      12.836      12.681      12.057      11.191      10.271      9.4289    
  8.7314      8.2000      7.8328      7.6194      7.5497      7.6194      7.8328      8.2000      8.7314      9.4289    
  10.271      11.191      12.057      12.681      12.836      12.294      10.955      8.9148      6.4537      3.9625    
  1.8455     0.43484      1.3769      1.8455      3.1768      5.1556      7.4545      9.6893      11.501      12.642    
  13.041      12.806      12.154      11.291      10.392      9.5764      8.9036      8.3920      8.0385      7.8328    
  7.7655      7.8328      8.0385      8.3920      8.9036      9.5764      10.392      11.291      12.154      12.806    
  13.041      12.642      11.501      9.6893      7.4545      5.1556      3.1768      1.8455      3.5395      3.9625    
  5.1556      6.9050      8.8979      10.785      12.254      13.107      13.307      12.970      12.291      11.448    
  10.593      9.8264      9.1981      8.7214      8.3920      8.2000      8.1371      8.2000      8.3920      8.7214    
  9.1981      9.8264      10.593      11.448      12.291      12.970      13.307      13.107      12.254      10.785    
  8.8979      6.9050      5.1556      3.9625      6.0960      6.4537      7.4545      8.8979      10.501      11.962    
  13.028      13.559      13.554      13.131      12.449      11.655      10.874      10.185      9.6233      9.1981    
  8.9036      8.7314      8.6747      8.7314      8.9036      9.1981      9.6233      10.185      10.874      11.655    
  12.449      13.131      13.554      13.559      13.028      11.962      10.501      8.8979      7.4545      6.4537    
  8.6354      8.9148      9.6893      10.785      11.962      12.978      13.647      13.884      13.718      13.254    
  12.612      11.910      11.240      10.657      10.185      9.8264      9.5764      9.4289      9.3801      9.4289    
  9.5764      9.8264      10.185      10.657      11.240      11.910      12.612      13.254      13.718      13.884    
  13.647      12.978      11.962      10.785      9.6893      8.9148      10.755      10.955      11.501      12.254    
  13.028      13.647      13.987      14.014      13.768      13.327      12.780      12.214      11.690      11.240    
  10.874      10.593      10.392      10.271      10.231      10.271      10.392      10.593      10.874      11.240    
  11.690      12.214      12.780      13.327      13.768      14.014      13.987      13.647      13.028      12.254    
  11.501      10.955      12.165      12.294      12.642      13.107      13.559      13.884      14.014      13.944    
  13.705      13.355      12.959      12.567      12.214      11.910      11.655      11.448      11.291      11.191    
  11.157      11.191      11.291      11.448      11.655      11.910      12.214      12.567      12.959      13.355    
  13.705      13.944      14.014      13.884      13.559      13.107      12.642      12.294      12.760      12.836    
  13.041      13.307      13.554      13.718      13.768      13.705      13.556      13.360      13.154      12.959    
  12.780      12.612      12.449      12.291      12.154      12.057      12.022      12.057      12.154      12.291    
  12.449      12.612      12.780      12.959      13.154      13.360      13.556      13.705      13.768      13.718    
  13.554      13.307      13.041      12.836      12.635      12.681      12.806      12.970      13.131      13.254    
  13.327      13.355      13.360      13.359      13.360      13.355      13.327      13.254      13.131      12.970    
  12.806      12.681      12.635      12.681      12.806      12.970      13.131      13.254      13.327      13.355    
  13.360      13.359      13.360      13.355      13.327      13.254      13.131      12.970      12.806      12.681    
  12.022      12.057      12.154      12.291      12.449      12.612      12.780      12.959      13.154      13.360    
  13.556      13.705      13.768      13.718      13.554      13.307      13.041      12.836      12.760      12.836    
  13.041      13.307      13.554      13.718      13.768      13.705      13.556      13.360      13.154      12.959    
  12.780      12.612      12.449      12.291      12.154      12.057      11.157      11.191      11.291      11.448    
  11.655      11.910      12.214      12.567      12.959      13.355      13.705      13.944      14.014      13.884    
  13.559      13.107      12.642      12.294      12.165      12.294      12.642      13.107      13.559      13.884    
  14.014      13.944      13.705      13.355      12.959      12.567      12.214      11.910      11.655      11.448    
  11.291      11.191      10.231      10.271      10.392      10.593      10.874      11.240      11.690      12.214    
  12.780      13.327      13.768      14.014      13.987      13.647      13.028      12.254      11.501      10.955    
  10.755      10.955      11.501      12.254      13.028      13.647      13.987      14.014      13.768      13.327    
  12.780      12.214      11.690      11.240      10.874      10.593      10.392      10.271      9.3801      9.4289    
  9.5764      9.8264      10.185      10.657      11.240      11.910      12.612      13.254      13.718      13.884    
  13.647      12.978      11.962      10.785      9.6893      8.9148      8.6354      8.9148      9.6893      10.785    
  11.962      12.978      13.647      13.884      13.718      13.254      12.612      11.910      11.240      10.657    
  10.185      9.8264      9.5764      9.4289      8.6747      8.7314      8.9036      9.1981      9.6233      10.185    
  10.874      11.655      12.449      13.131      13.554      13.559      13.028      11.962      10.501      8.8979    
  7.4545      6.4537      6.0960      6.4537      7.4545      8.8979      10.501      11.962      13.028      13.559    
  13.554      13.131      12.449      11.655      10.874      10.185      9.6233      9.1981      8.9036      8.7314    
  8.1371      8.2000      8.3920      8.7214      9.1981      9.8264      10.593      11.448      12.291      12.970    
  13.307      13.107      12.254      10.785      8.8979      6.9050      5.1556      3.9625      3.5395      3.9625    
  5.1556      6.9050      8.8979      10.785      12.254      13.107      13.307      12.970      12.291      11.448    
  10.593      9.8264      9.1981      8.7214      8.3920      8.2000      7.7655      7.8328      8.0385      8.3920    
  8.9036      9.5764      10.392      11.291      12.154      12.806      13.041      12.642      11.501      9.6893    
  7.4545      5.1556      3.1768      1.8455      1.3769      1.8455      3.1768      5.1556      7.4545      9.6893    
  11.501      12.642      13.041      12.806      12.154      11.291      10.392      9.5764      8.9036      8.3920    
  8.0385      7.8328      7.5497      7.6194      7.8328      8.2000      8.7314      9.4289      10.271      11.191    
  12.057      12.681      12.836      12.294      10.955      8.9148      6.4537      3.9625      1.8455     0.43484    
 -.59058E-01 0.43484      1.8455      3.9625      6.4537      8.9148      10.955      12.294      12.836      12.681    
  12.057      11.191      10.271      9.4289      8.7314      8.2000      7.8328      7.6194      7.4792      7.5497    
  7.7655      8.1371      8.6747      9.3801      10.231      11.157      12.022      12.635      12.760      12.165    
  10.755      8.6354      6.0960      3.5395      1.3769     -.59058E-01 -.56081     -.59058E-01  1.3769      3.5395    
  6.0960      8.6354      10.755      12.165      12.760      12.635      12.022      11.157      10.231      9.3801    
  8.6747      8.1371      7.7655      7.5497      7.5497      7.6194      7.8328      8.2000      8.7314      9.4289    
  10.271      11.191      12.057      12.681      12.836      12.294      10.955      8.9148      6.4537      3.9625    
  1.8455     0.43484     -.59058E-01 0.43484      1.8455      3.9625      6.4537      8.9148      10.955      12.294    
  12.836      12.681      12.057      11.191      10.271      9.4289      8.7314      8.2000      7.8328      7.6194    
  7.7655      7.8328      8.0385      8.3920      8.9036      9.5764      10.392      11.291      12.154      12.806    
  13.041      12.642      11.501      9.6893      7.4545      5.1556      3.1768      1.8455      1.3769      1.8455    
  3.1768      5.1556      7.4545      9.6893      11.501      12.642      13.041      12.806      12.154      11.291    
  10.392      9.5764      8.9036      8.3920      8.0385      7.8328      8.1371      8.2000      8.3920      8.7214    
  9.1981      9.8264      10.593      11.448      12.291      12.970      13.307      13.107      12.254      10.785    
  8.8979      6.9050      5.1556      3.9625      3.5395      3.9625      5.1556      6.9050      8.8979      10.785    
  12.254      13.107      13.307      12.970      12.291      11.448      10.593      9.8264      9.1981      8.7214    
  8.3920      8.2000      8.6747      8.7314      8.9036      9.1981      9.6233      10.185      10.874      11.655    
  12.449      13.131      13.554      13.559      13.028      11.962      10.501      8.8979      7.4545      6.4537    
  6.0960      6.4537      7.4545      8.8979      10.501      11.962      13.028      13.559      13.554      13.131    
  12.449      11.655      10.874      10.185      9.6233      9.1981      8.9036      8.7314      9.3801      9.4289    
  9.5764      9.8264      10.185      10.657      11.240      11.910      12.612      13.254      13.718      13.884    
  13.647      12.978      11.962      10.785      9.6893      8.9148      8.6354      8.9148      9.6893      10.785    
  11.962      12.978      13.647      13.884      13.718      13.254      12.612      11.910      11.240      10.657    
  10.185      9.8264      9.5764      9.4289      10.231      10.271      10.392      10.593      10.874      11.240    
  11.690      12.214      12.780      13.327      13.768      14.014      13.987      13.647      13.028      12.254    
  11.501      10.955      10.755      10.955      11.501      12.254      13.028      13.647      13.987      14.014    
  13.768      13.327      12.780      12.214      11.690      11.240      10.874      10.593      10.392      10.271    
  11.157      11.191      11.291      11.448      11.655      11.910      12.214      12.567      12.959      13.355    
  13.705      13.944      14.014      13.884      13.559      13.107      12.642      12.294      12.165      12.294    
  12.642      13.107      13.559      13.884      14.014      13.944      13.705      13.355      12.959      12.567    
  12.214      11.910      11.655      11.448      11.291      11.191      12.022      12.057      12.154      12.291    
  12.449      12.612      12.780      12.959      13.154      13.360      13.556      13.705      13.768      13.718    
  13.554      13.307      13.041      12.836      12.760      12.836      13.041      13.307      13.554      13.718    
  13.768      13.705      13.556      13.360      13.154      12.959      12.780      12.612      12.449      12.291    
  12.154      12.057      12.635      12.681      12.806      12.970      13.131      13.254      13.327      13.355    
  13.360      13.359      13.360      13.355      13.327      13.254      13.131      12.970      12.806      12.681    
  12.635      12.681      12.806      12.970      13.131      13.254      13.327      13.355      13.360      13.359    
  13.360      13.355      13.327      13.254      13.131      12.970      12.806      12.681      12.760      12.836    
  13.041      13.307      13.554      13.718      13.768      13.705      13.556      13.360      13.154      12.959    
  12.780      12.612      12.449      12.291      12.154      12.057      12.022      12.057      12.154      12.291    
  12.449      12.612      12.780      12.959      13.154      13.360      13.556      13.705      13.768      13.718    
  13.554      13.307      13.041      12.836      12.165      12.294      12.642      13.107      13.559      13.884    
  14.014      13.944      13.705      13.355      12.959      12.567      12.214      11.910      11.655      11.448    
  11.291      11.191      11.157      11.191      11.291      11.448      11.655      11.910      12.214      12.567    
  12.959      13.355      13.705      13.944      14.014      13.884      13.559      13.107      12.642      12.294    
  10.755      10.955      11.501      12.254      13.028      13.647      13.987      14.014      13.768      13.327    
  12.780      12.214      11.690      11.240      10.874      10.593      10.392      10.271      10.231      10.271    
  10.392      10.593      10.874      11.240      11.690      12.214      12.780      13.327      13.768      14.014    
  13.987      13.647      13.028      12.254      11.501      10.955      8.6354      8.9148      9.6893      10.785    
  11.962      12.978      13.647      13.884      13.718      13.254      12.612      11.910      11.240      10.657    
  10.185      9.8264      9.5764      9.4289      9.3801      9.4289      9.5764      9.8264      10.185      10.657    
  11.240      11.910      12.612      13.254      13.718      13.884      13.647      12.978      11.962      10.785    
  9.6893      8.9148      6.0960      6.4537      7.4545      8.8979      10.501      11.962      13.028      13.559    
  13.554      13.131      12.449      11.655      10.874      10.185      9.6233      9.1981      8.9036      8.7314    
  8.6747      8.7314      8.9036      9.1981      9.6233      10.185      10.874      11.655      12.449      13.131    
  13.554      13.559      13.028      11.962      10.501      8.8979      7.4545      6.4537      3.5395      3.9625    
  5.1556      6.9050      8.8979      10.785      12.254      13.107      13.307      12.970      12.291      11.448    
  10.593      9.8264      9.1981      8.7214      8.3920      8.2000      8.1371      8.2000      8.3920      8.7214    
  9.1981      9.8264      10.593      11.448      12.291      12.970      13.307      13.107      12.254      10.785    
  8.8979      6.9050      5.1556      3.9625      1.3769      1.8455      3.1768      5.1556      7.4545      9.6893    
  11.501      12.642      13.041      12.806      12.154      11.291      10.392      9.5764      8.9036      8.3920    
  8.0385      7.8328      7.7655      7.8328      8.0385      8.3920      8.9036      9.5764      10.392      11.291    
  12.154      12.806      13.041      12.642      11.501      9.6893      7.4545      5.1556      3.1768      1.8455    
 -.59058E-01 0.43484      1.8455      3.9625      6.4537      8.9148      10.955      12.294      12.836      12.681    
  12.057      11.191      10.271      9.4289      8.7314      8.2000      7.8328      7.6194      7.5497      7.6194    
  7.8328      8.2000      8.7314      9.4289      10.271      11.191      12.057      12.681      12.836      12.294    
  10.955      8.9148      6.4537      3.9625      1.8455     0.43484     -.59058E-01 0.43484      1.8455      3.9625    
  6.4537      8.9148      10.955      12.294      12.836      12.681      12.057      11.191      10.271      9.4289    
  8.7314      8.2000      7.8328      7.6194      7.5497      7.6194      7.8328      8.2000      8.7314      9.4289    
  10.271      11.191      12.057      12.681      12.836      12.294      10.955      8.9148      6.4537      3.9625    
  1.8455     0.43484     0.43484     0.92035      2.3045      4.3749      6.8006      9.1842      11.145      12.416    
  12.908      12.725      12.090      11.224      10.311      9.4768      8.7873      8.2622      7.8994      7.6884    
  7.6194      7.6884      7.8994      8.2622      8.7873      9.4768      10.311      11.224      12.090      12.725    
  12.908      12.416      11.145      9.1842      6.8006      4.3749      2.3045     0.92035      1.8455      2.3045    
  3.6067      5.5367      7.7701      9.9301      11.667      12.746      13.100      12.841      12.181      11.320    
  10.429      9.6217      8.9572      8.4519      8.1027      7.8994      7.8328      7.8994      8.1027      8.4519    
  8.9572      9.6217      10.429      11.320      12.181      12.841      13.100      12.746      11.667      9.9301    
  7.7701      5.5367      3.6067      2.3045      3.9625      4.3749      5.5367      7.2362      9.1656      10.983    
  12.386      13.185      13.348      12.994      12.310      11.471      10.624      9.8671      9.2473      8.7771    
  8.4519      8.2622      8.2000      8.2622      8.4519      8.7771      9.2473      9.8671      10.624      11.471    
  12.310      12.994      13.348      13.185      12.386      10.983      9.1656      7.2362      5.5367      4.3749    
  6.4537      6.8006      7.7701      9.1656      10.710      12.109      13.121      13.608      13.576      13.142    
  12.458      11.670      10.899      10.219      9.6660      9.2473      8.9572      8.7873      8.7314      8.7873    
  8.9572      9.2473      9.6660      10.219      10.899      11.670      12.458      13.142      13.576      13.608    
  13.121      12.109      10.710      9.1656      7.7701      6.8006      8.9148      9.1842      9.9301      10.983    
  12.109      13.075      13.701      13.906      13.723      13.253      12.612      11.916      11.256      10.683    
  10.219      9.8671      9.6217      9.4768      9.4289      9.4768      9.6217      9.8671      10.219      10.683    
  11.256      11.916      12.612      13.253      13.723      13.906      13.701      13.075      12.109      10.983    
  9.9301      9.1842      10.955      11.145      11.667      12.386      13.121      13.701      14.010      14.016    
  13.760      13.315      12.771      12.212      11.696      11.256      10.899      10.624      10.429      10.311    
  10.271      10.311      10.429      10.624      10.899      11.256      11.696      12.212      12.771      13.315    
  13.760      14.016      14.010      13.701      13.121      12.386      11.667      11.145      12.294      12.416    
  12.746      13.185      13.608      13.906      14.016      13.933      13.688      13.336      12.943      12.558    
  12.212      11.916      11.670      11.471      11.320      11.224      11.191      11.224      11.320      11.471    
  11.670      11.916      12.212      12.558      12.943      13.336      13.688      13.933      14.016      13.906    
  13.608      13.185      12.746      12.416      12.836      12.908      13.100      13.348      13.576      13.723    
  13.760      13.688      13.534      13.337      13.133      12.943      12.771      12.612      12.458      12.310    
  12.181      12.090      12.057      12.090      12.181      12.310      12.458      12.612      12.771      12.943    
  13.133      13.337      13.534      13.688      13.760      13.723      13.576      13.348      13.100      12.908    
  12.681      12.725      12.841      12.994      13.142      13.253      13.315      13.336      13.337      13.335    
  13.337      13.336      13.315      13.253      13.142      12.994      12.841      12.725      12.681      12.725    
  12.841      12.994      13.142      13.253      13.315      13.336      13.337      13.335      13.337      13.336    
  13.315      13.253      13.142      12.994      12.841      12.725      12.057      12.090      12.181      12.310    
  12.458      12.612      12.771      12.943      13.133      13.337      13.534      13.688      13.760      13.723    
  13.576      13.348      13.100      12.908      12.836      12.908      13.100      13.348      13.576      13.723    
  13.760      13.688      13.534      13.337      13.133      12.943      12.771      12.612      12.458      12.310    
  12.181      12.090      11.191      11.224      11.320      11.471      11.670      11.916      12.212      12.558    
  12.943      13.336      13.688      13.933      14.016      13.906      13.608      13.185      12.746      12.416    
  12.294      12.416      12.746      13.185      13.608      13.906      14.016      13.933      13.688      13.336    
  12.943      12.558      12.212      11.916      11.670      11.471      11.320      11.224      10.271      10.311    
  10.429      10.624      10.899      11.256      11.696      12.212      12.771      13.315      13.760      14.016    
  14.010      13.701      13.121      12.386      11.667      11.145      10.955      11.145      11.667      12.386    
  13.121      13.701      14.010      14.016      13.760      13.315      12.771      12.212      11.696      11.256    
  10.899      10.624      10.429      10.311      9.4289      9.4768      9.6217      9.8671      10.219      10.683    
  11.256      11.916      12.612      13.253      13.723      13.906      13.701      13.075      12.109      10.983    
  9.9301      9.1842      8.9148      9.1842      9.9301      10.983      12.109      13.075      13.701      13.906    
  13.723      13.253      12.612      11.916      11.256      10.683      10.219      9.8671      9.6217      9.4768    
  8.7314      8.7873      8.9572      9.2473      9.6660      10.219      10.899      11.670      12.458      13.142    
  13.576      13.608      13.121      12.109      10.710      9.1656      7.7701      6.8006      6.4537      6.8006    
  7.7701      9.1656      10.710      12.109      13.121      13.608      13.576      13.142      12.458      11.670    
  10.899      10.219      9.6660      9.2473      8.9572      8.7873      8.2000      8.2622      8.4519      8.7771    
  9.2473      9.8671      10.624      11.471      12.310      12.994      13.348      13.185      12.386      10.983    
  9.1656      7.2362      5.5367      4.3749      3.9625      4.3749      5.5367      7.2362      9.1656      10.983    
  12.386      13.185      13.348      12.994      12.310      11.471      10.624      9.8671      9.2473      8.7771    
  8.4519      8.2622      7.8328      7.8994      8.1027      8.4519      8.9572      9.6217      10.429      11.320    
  12.181      12.841      13.100      12.746      11.667      9.9301      7.7701      5.5367      3.6067      2.3045    
  1.8455      2.3045      3.6067      5.5367      7.7701      9.9301      11.667      12.746      13.100      12.841    
  12.181      11.320      10.429      9.6217      8.9572      8.4519      8.1027      7.8994      7.6194      7.6884    
  7.8994      8.2622      8.7873      9.4768      10.311      11.224      12.090      12.725      12.908      12.416    
  11.145      9.1842      6.8006      4.3749      2.3045     0.92035     0.43484     0.92035      2.3045      4.3749    
  6.8006      9.1842      11.145      12.416      12.908      12.725      12.090      11.224      10.311      9.4768    
  8.7873      8.2622      7.8994      7.6884      7.5497      7.6194      7.8328      8.2000      8.7314      9.4289    
  10.271      11.191      12.057      12.681      12.836      12.294      10.955      8.9148      6.4537      3.9625    
  1.8455     0.43484     -.59058E-01 0.43484      1.8455      3.9625      6.4537      8.9148      10.955      12.294    
  12.836      12.681      12.057      11.191      10.271      9.4289      8.7314      8.2000      7.8328      7.6194    
  7.6194      7.6884      7.8994      8.2622      8.7873      9.4768      10.311      11.224      12.090      12.725    
  12.908      12.416      11.145      9.1842      6.8006      4.3749      2.3045     0.92035     0.43484     0.92035    
  2.3045      4.3749      6.8006      9.1842      11.145      12.416      12.908      12.725      12.090      11.224    
  10.311      9.4768      8.7873      8.2622      7.8994      7.6884      7.8328      7.8994      8.1027      8.4519    
  8.9572      9.6217      10.429      11.320      12.181      12.841      13.100      12.746      11.667      9.9301    
  7.7701      5.5367      3.6067      2.3045      1.8455      2.3045      3.6067      5.5367      7.7701      9.9301    
  11.667      12.746      13.100      12.841      12.181      11.320      10.429      9.6217      8.9572      8.4519    
  8.1027      7.8994      8.2000      8.2622      8.4519      8.7771      9.2473      9.8671      10.624      11.471    
  12.310      12.994      13.348      13.185      12.386      10.983      9.1656      7.2362      5.5367      4.3749    
  3.9625      4.3749      5.5367      7.2362      9.1656      10.983      12.386      13.185      13.348      12.994    
  12.310      11.471      10.624      9.8671      9.2473      8.7771      8.4519      8.2622      8.7314      8.7873    
  8.9572      9.2473      9.6660      10.219      10.899      11.670      12.458      13.142      13.576      13.608    
  13.121      12.109      10.710      9.1656      7.7701      6.8006      6.4537      6.8006      7.7701      9.1656    
  10.710      12.109      13.121      13.608      13.576      13.142      12.458      11.670      10.899      10.219    
  9.6660      9.2473      8.9572      8.7873      9.4289      9.4768      9.6217      9.8671      10.219      10.683    
  11.256      11.916      12.612      13.253      13.723      13.906      13.701      13.075      12.109      10.983    
  9.9301      9.1842      8.9148      9.1842      9.9301      10.983      12.109      13.075      13.701      13.906    
  13.723      13.253      12.612      11.916      11.256      10.683      10.219      9.8671      9.6217      9.4768    
  10.271      10.311      10.429      10.624      10.899      11.256      11.696      12.212      12.771      13.315    
  13.760      14.016      14.010      13.701      13.121      12.386      11.667      11.145      10.955      11.145    
  11.667      12.386      13.121      13.701      14.010      14.016      13.760      13.315      12.771      12.212    
  11.696      11.256      10.899      10.624      10.429      10.311      11.191      11.224      11.320      11.471    
  11.670      11.916      12.212      12.558      12.943      13.336      13.688      13.933      14.016      13.906    
  13.608      13.185      12.746      12.416      12.294      12.416      12.746      13.185      13.608      13.906    
  14.016      13.933      13.688      13.336      12.943      12.558      12.212      11.916      11.670      11.471    
  11.320      11.224      12.057      12.090      12.181      12.310      12.458      12.612      12.771      12.943    
  13.133      13.337      13.534      13.688      13.760      13.723      13.576      13.348      13.100      12.908    
  12.836      12.908      13.100      13.348      13.576      13.723      13.760      13.688      13.534      13.337    
  13.133      12.943      12.771      12.612      12.458      12.310      12.181      12.090      12.681      12.725    
  12.841      12.994      13.142      13.253      13.315      13.336      13.337      13.335      13.337      13.336    
  13.315      13.253      13.142      12.994      12.841      12.725      12.681      12.725      12.841      12.994    
  13.142      13.253      13.315      13.336      13.337      13.335      13.337      13.336      13.315      13.253    
  13.142      12.994      12.841      12.725      12.836      12.908      13.100      13.348      13.576      13.723    
  13.760      13.688      13.534      13.337      13.133      12.943      12.771      12.612      12.458      12.310    
  12.181      12.090      12.057      12.090      12.181      12.310      12.458      12.612      12.771      12.943    
  13.133      13.337      13.534      13.688      13.760      13.723      13.576      13.348      13.100      12.908    
  12.294      12.416      12.746      13.185      13.608      13.906      14.016      13.933      13.688      13.336    
  12.943      12.558      12.212      11.916      11.670      11.471      11.320      11.224      11.191      11.224    
  11.320      11.471      11.670      11.916      12.212      12.558      12.943      13.336      13.688      13.933    
  14.016      13.906      13.608      13.185      12.746      12.416      10.955      11.145      11.667      12.386    
  13.121      13.701      14.010      14.016      13.760      13.315      12.771      12.212      11.696      11.256    
  10.899      10.624      10.429      10.311      10.271      10.311      10.429      10.624      10.899      11.256    
  11.696      12.212      12.771      13.315      13.760      14.016      14.010      13.701      13.121      12.386    
  11.667      11.145      8.9148      9.1842      9.9301      10.983      12.109      13.075      13.701      13.906    
  13.723      13.253      12.612      11.916      11.256      10.683      10.219      9.8671      9.6217      9.4768    
  9.4289      9.4768      9.6217      9.8671      10.219      10.683      11.256      11.916      12.612      13.253    
  13.723      13.906      13.701      13.075      12.109      10.983      9.9301      9.1842      6.4537      6.8006    