Al                                      
   1.00000000000000     
     4.040210    0.000000    0.000000
     0.000000    4.040210    0.000000
     0.000000    0.000000    4.040210
   Al
     4
Direct
  0.000000  0.000000  0.000000
  0.000000  0.500000  0.500000
  0.500000  0.000000  0.500000
  0.500000  0.500000  0.000000
 
   36   36   36
 -.56081287956E+00 -.59057952463E-01 0.13768971100E+01 0.35395235721E+01 0.60960020000E+01
 0.86353977374E+01 0.10755461313E+02 0.12165024660E+02 0.12759664857E+02 0.12634721507E+02
 0.12022334732E+02 0.11156515294E+02 0.10230553192E+02 0.93800621750E+01 0.86747286007E+01
 0.81370505062E+01 0.77654943395E+01 0.75497045315E+01 0.74792302430E+01 0.75497045315E+01
 0.77654943395E+01 0.81370505062E+01 0.86747286007E+01 0.93800621750E+01 0.10230553192E+02
 0.11156515294E+02 0.12022334732E+02 0.12634721507E+02 0.12759664857E+02 0.12165024660E+02
 0.10755461313E+02 0.86353977374E+01 0.60960020000E+01 0.35395235721E+01 0.13768971100E+01
 -.59057952463E-01 -.59057952463E-01 0.43483620396E+00 0.18454883933E+01 0.39625206567E+01
 0.64537428839E+01 0.89148403112E+01 0.10954663866E+02 0.12293748027E+02 0.12836325452E+02
 0.12681181945E+02 0.12057173410E+02 0.11191033468E+02 0.10271132111E+02 0.94288647575E+01
 0.87313752624E+01 0.82000070747E+01 0.78328047898E+01 0.76194294533E+01 0.75497045315E+01
 0.76194294533E+01 0.78328047898E+01 0.82000070747E+01 0.87313752624E+01 0.94288647575E+01
 0.10271132111E+02 0.11191033468E+02 0.12057173410E+02 0.12681181945E+02 0.12836325452E+02
 0.12293748027E+02 0.10954663866E+02 0.89148403112E+01 0.64537428839E+01 0.39625206567E+01
 0.18454883933E+01 0.43483620396E+00 0.13768971100E+01 0.18454883933E+01 0.31768021889E+01
 0.51556427300E+01 0.74545350837E+01 0.96893275546E+01 0.11500523243E+02 0.12641575705E+02
 0.13040747120E+02 0.12805638421E+02 0.12153562880E+02 0.11290998696E+02 0.10392168175E+02
 0.95763939132E+01 0.89036342743E+01 0.83920254448E+01 0.80385012239E+01 0.78328047898E+01
 0.77654943395E+01 0.78328047898E+01 0.80385012239E+01 0.83920254448E+01 0.89036342743E+01
 0.95763939132E+01 0.10392168175E+02 0.11290998696E+02 0.12153562880E+02 0.12805638421E+02
 0.13040747120E+02 0.12641575705E+02 0.11500523243E+02 0.96893275546E+01 0.74545350837E+01
 0.51556427300E+01 0.31768021889E+01 0.18454883933E+01 0.35395235721E+01 0.39625206567E+01
 0.51556427300E+01 0.69049556589E+01 0.88978932540E+01 0.10784540889E+02 0.12253556324E+02
 0.13106840662E+02 0.13306675065E+02 0.12970474881E+02 0.12291405821E+02 0.11448162429E+02
 0.10592811294E+02 0.98263552765E+01 0.91980503069E+01 0.87214121359E+01 0.83920254448E+01
 0.82000070747E+01 0.81370505062E+01 0.82000070747E+01 0.83920254448E+01 0.87214121359E+01
 0.91980503069E+01 0.98263552765E+01 0.10592811294E+02 0.11448162429E+02 0.12291405821E+02
 0.12970474881E+02 0.13306675065E+02 0.13106840662E+02 0.12253556324E+02 0.10784540889E+02
 0.88978932540E+01 0.69049556589E+01 0.51556427300E+01 0.39625206567E+01 0.60960020000E+01
 0.64537428839E+01 0.74545350837E+01 0.88978932540E+01 0.10500864621E+02 0.11961534021E+02
 0.13028250058E+02 0.13559421223E+02 0.13553702796E+02 0.13131418529E+02 0.12448834606E+02
 0.11655173719E+02 0.10874253795E+02 0.10184813127E+02 0.96233233784E+01 0.91980503069E+01
 0.89036342743E+01 0.87313752624E+01 0.86747286007E+01 0.87313752624E+01 0.89036342743E+01
 0.91980503069E+01 0.96233233784E+01 0.10184813127E+02 0.10874253795E+02 0.11655173719E+02
 0.12448834606E+02 0.13131418529E+02 0.13553702796E+02 0.13559421223E+02 0.13028250058E+02
 0.11961534021E+02 0.10500864621E+02 0.88978932540E+01 0.74545350837E+01 0.64537428839E+01
 0.86353977374E+01 0.89148403112E+01 0.96893275546E+01 0.10784540889E+02 0.11961534021E+02
 0.12977607677E+02 0.13646697541E+02 0.13883711825E+02 0.13717900967E+02 0.13254454564E+02
 0.12612156703E+02 0.11909757586E+02 0.11239670385E+02 0.10656987768E+02 0.10184813127E+02
 0.98263552765E+01 0.95763939132E+01 0.94288647575E+01 0.93800621750E+01 0.94288647575E+01
 0.95763939132E+01 0.98263552765E+01 0.10184813127E+02 0.10656987768E+02 0.11239670385E+02
 0.11909757586E+02 0.12612156703E+02 0.13254454564E+02 0.13717900967E+02 0.13883711825E+02
 0.13646697541E+02 0.12977607677E+02 0.11961534021E+02 0.10784540889E+02 0.96893275546E+01
 0.89148403112E+01 0.10755461313E+02 0.10954663866E+02 0.11500523243E+02 0.12253556324E+02
 0.13028250058E+02 0.13646697541E+02 0.13987315121E+02 0.14013599031E+02 0.13768309034E+02
 0.13326533900E+02 0.12779827967E+02 0.12213910047E+02 0.11689746558E+02 0.11239670385E+02
 0.10874253795E+02 0.10592811294E+02 0.10392168175E+02 0.10271132111E+02 0.10230553192E+02
 0.10271132111E+02 0.10392168175E+02 0.10592811294E+02 0.10874253795E+02 0.11239670385E+02
 0.11689746558E+02 0.12213910047E+02 0.12779827967E+02 0.13326533900E+02 0.13768309034E+02
 0.14013599031E+02 0.13987315121E+02 0.13646697541E+02 0.13028250058E+02 0.12253556324E+02
 0.11500523243E+02 0.10954663866E+02 0.12165024660E+02 0.12293748027E+02 0.12641575705E+02
 0.13106840662E+02 0.13559421223E+02 0.13883711825E+02 0.14013599031E+02 0.13943604406E+02
 0.13705200628E+02 0.13355358326E+02 0.12958526169E+02 0.12567467816E+02 0.12213910047E+02
 0.11909757586E+02 0.11655173719E+02 0.11448162429E+02 0.11290998696E+02 0.11191033468E+02
 0.11156515294E+02 0.11191033468E+02 0.11290998696E+02 0.11448162429E+02 0.11655173719E+02
 0.11909757586E+02 0.12213910047E+02 0.12567467816E+02 0.12958526169E+02 0.13355358326E+02
 0.13705200628E+02 0.13943604406E+02 0.14013599031E+02 0.13883711825E+02 0.13559421223E+02
 0.13106840662E+02 0.12641575705E+02 0.12293748027E+02 0.12759664857E+02 0.12836325452E+02
 0.13040747120E+02 0.13306675065E+02 0.13553702796E+02 0.13717900967E+02 0.13768309034E+02
 0.13705200628E+02 0.13555965229E+02 0.13360197611E+02 0.13153791734E+02 0.12958526169E+02
 0.12779827967E+02 0.12612156703E+02 0.12448834606E+02 0.12291405821E+02 0.12153562880E+02
 0.12057173410E+02 0.12022334732E+02 0.12057173410E+02 0.12153562880E+02 0.12291405821E+02
 0.12448834606E+02 0.12612156703E+02 0.12779827967E+02 0.12958526169E+02 0.13153791734E+02
 0.13360197611E+02 0.13555965229E+02 0.13705200628E+02 0.13768309034E+02 0.13717900967E+02
 0.13553702796E+02 0.13306675065E+02 0.13040747120E+02 0.12836325452E+02 0.12634721507E+02
 0.12681181945E+02 0.12805638421E+02 0.12970474881E+02 0.13131418529E+02 0.13254454564E+02
 0.13326533900E+02 0.13355358326E+02 0.13360197611E+02 0.13359361686E+02 0.13360197611E+02
 0.13355358326E+02 0.13326533900E+02 0.13254454564E+02 0.13131418529E+02 0.12970474881E+02
 0.12805638421E+02 0.12681181945E+02 0.12634721507E+02 0.12681181945E+02 0.12805638421E+02
 0.12970474881E+02 0.13131418529E+02 0.13254454564E+02 0.13326533900E+02 0.13355358326E+02
 0.13360197611E+02 0.13359361686E+02 0.13360197611E+02 0.13355358326E+02 0.13326533900E+02
 0.13254454564E+02 0.13131418529E+02 0.12970474881E+02 0.12805638421E+02 0.12681181945E+02
 0.12022334732E+02 0.12057173410E+02 0.12153562880E+02 0.12291405821E+02 0.12448834606E+02
 0.12612156703E+02 0.12779827967E+02 0.12958526169E+02 0.13153791734E+02 0.13360197611E+02
 0.13555965229E+02 0.13705200628E+02 0.13768309034E+02 0.13717900967E+02 0.13553702796E+02
 0.13306675065E+02 0.13040747120E+02 0.12836325452E+02 0.12759664857E+02 0.12836325452E+02
 0.13040747120E+02 0.13306675065E+02 0.13553702796E+02 0.13717900967E+02 0.13768309034E+02
 0.13705200628E+02 0.13555965229E+02 0.13360197611E+02 0.13153791734E+02 0.12958526169E+02
 0.12779827967E+02 0.12612156703E+02 0.12448834606E+02 0.12291405821E+02 0.12153562880E+02
 0.12057173410E+02 0.11156515294E+02 0.11191033468E+02 0.11290998696E+02 0.11448162429E+02
 0.11655173719E+02 0.11909757586E+02 0.12213910047E+02 0.12567467816E+02 0.12958526169E+02
 0.13355358326E+02 0.13705200628E+02 0.13943604406E+02 0.14013599031E+02 0.13883711825E+02
 0.13559421223E+02 0.13106840662E+02 0.12641575705E+02 0.12293748027E+02 0.12165024660E+02
 0.12293748027E+02 0.12641575705E+02 0.13106840662E+02 0.13559421223E+02 0.13883711825E+02
 0.14013599031E+02 0.13943604406E+02 0.13705200628E+02 0.13355358326E+02 0.12958526169E+02
 0.12567467816E+02 0.12213910047E+02 0.11909757586E+02 0.11655173719E+02 0.11448162429E+02
 0.11290998696E+02 0.11191033468E+02 0.10230553192E+02 0.10271132111E+02 0.10392168175E+02
 0.10592811294E+02 0.10874253795E+02 0.11239670385E+02 0.11689746558E+02 0.12213910047E+02
 0.12779827967E+02 0.13326533900E+02 0.13768309034E+02 0.14013599031E+02 0.13987315121E+02
 0.13646697541E+02 0.13028250058E+02 0.12253556324E+02 0.11500523243E+02 0.10954663866E+02
 0.10755461313E+02 0.10954663866E+02 0.11500523243E+02 0.12253556324E+02 0.13028250058E+02
 0.13646697541E+02 0.13987315121E+02 0.14013599031E+02 0.13768309034E+02 0.13326533900E+02
 0.12779827967E+02 0.12213910047E+02 0.11689746558E+02 0.11239670385E+02 0.10874253795E+02
 0.10592811294E+02 0.10392168175E+02 0.10271132111E+02 0.93800621750E+01 0.94288647575E+01
 0.95763939132E+01 0.98263552765E+01 0.10184813127E+02 0.10656987768E+02 0.11239670385E+02
 0.11909757586E+02 0.12612156703E+02 0.13254454564E+02 0.13717900967E+02 0.13883711825E+02
 0.13646697541E+02 0.12977607677E+02 0.11961534021E+02 0.10784540889E+02 0.96893275546E+01
 0.89148403112E+01 0.86353977374E+01 0.89148403112E+01 0.96893275546E+01 0.10784540889E+02
 0.11961534021E+02 0.12977607677E+02 0.13646697541E+02 0.13883711825E+02 0.13717900967E+02
 0.13254454564E+02 0.12612156703E+02 0.11909757586E+02 0.11239670385E+02 0.10656987768E+02
 0.10184813127E+02 0.98263552765E+01 0.95763939132E+01 0.94288647575E+01 0.86747286007E+01
 0.87313752624E+01 0.89036342743E+01 0.91980503069E+01 0.96233233784E+01 0.10184813127E+02
 0.10874253795E+02 0.11655173719E+02 0.12448834606E+02 0.13131418529E+02 0.13553702796E+02
 0.13559421223E+02 0.13028250058E+02 0.11961534021E+02 0.10500864621E+02 0.88978932540E+01
 0.74545350837E+01 0.64537428839E+01 0.60960020000E+01 0.64537428839E+01 0.74545350837E+01
 0.88978932540E+01 0.10500864621E+02 0.11961534021E+02 0.13028250058E+02 0.13559421223E+02
 0.13553702796E+02 0.13131418529E+02 0.12448834606E+02 0.11655173719E+02 0.10874253795E+02
 0.10184813127E+02 0.96233233784E+01 0.91980503069E+01 0.89036342743E+01 0.87313752624E+01
 0.81370505062E+01 0.82000070747E+01 0.83920254448E+01 0.87214121359E+01 0.91980503069E+01
 0.98263552765E+01 0.10592811294E+02 0.11448162429E+02 0.12291405821E+02 0.12970474881E+02
 0.13306675065E+02 0.13106840662E+02 0.12253556324E+02 0.10784540889E+02 0.88978932540E+01
 0.69049556589E+01 0.51556427300E+01 0.39625206567E+01 0.35395235721E+01 0.39625206567E+01
 0.51556427300E+01 0.69049556589E+01 0.88978932540E+01 0.10784540889E+02 0.12253556324E+02
 0.13106840662E+02 0.13306675065E+02 0.12970474881E+02 0.12291405821E+02 0.11448162429E+02
 0.10592811294E+02 0.98263552765E+01 0.91980503069E+01 0.87214121359E+01 0.83920254448E+01
 0.82000070747E+01 0.77654943395E+01 0.78328047898E+01 0.80385012239E+01 0.83920254448E+01
 0.89036342743E+01 0.95763939132E+01 0.10392168175E+02 0.11290998696E+02 0.12153562880E+02
 0.12805638421E+02 0.13040747120E+02 0.12641575705E+02 0.11500523243E+02 0.96893275546E+01
 0.74545350837E+01 0.51556427300E+01 0.31768021889E+01 0.18454883933E+01 0.13768971100E+01
 0.18454883933E+01 0.31768021889E+01 0.51556427300E+01 0.74545350837E+01 0.96893275546E+01
 0.11500523243E+02 0.12641575705E+02 0.13040747120E+02 0.12805638421E+02 0.12153562880E+02
 0.11290998696E+02 0.10392168175E+02 0.95763939132E+01 0.89036342743E+01 0.83920254448E+01
 0.80385012239E+01 0.78328047898E+01 0.75497045315E+01 0.76194294533E+01 0.78328047898E+01
 0.82000070747E+01 0.87313752624E+01 0.94288647575E+01 0.10271132111E+02 0.11191033468E+02
 0.12057173410E+02 0.12681181945E+02 0.12836325452E+02 0.12293748027E+02 0.10954663866E+02
 0.89148403112E+01 0.64537428839E+01 0.39625206567E+01 0.18454883933E+01 0.43483620396E+00
 -.59057952463E-01 0.43483620396E+00 0.18454883933E+01 0.39625206567E+01 0.64537428839E+01
 0.89148403112E+01 0.10954663866E+02 0.12293748027E+02 0.12836325452E+02 0.12681181945E+02
 0.12057173410E+02 0.11191033468E+02 0.10271132111E+02 0.94288647575E+01 0.87313752624E+01
 0.82000070747E+01 0.78328047898E+01 0.76194294533E+01 0.74792302430E+01 0.75497045315E+01
 0.77654943395E+01 0.81370505062E+01 0.86747286007E+01 0.93800621750E+01 0.10230553192E+02
 0.11156515294E+02 0.12022334732E+02 0.12634721507E+02 0.12759664857E+02 0.12165024660E+02
 0.10755461313E+02 0.86353977374E+01 0.60960020000E+01 0.35395235721E+01 0.13768971100E+01
 -.59057952463E-01 -.56081287956E+00 -.59057952463E-01 0.13768971100E+01 0.35395235721E+01
 0.60960020000E+01 0.86353977374E+01 0.10755461313E+02 0.12165024660E+02 0.12759664857E+02
 0.12634721507E+02 0.12022334732E+02 0.11156515294E+02 0.10230553192E+02 0.93800621750E+01
 0.86747286007E+01 0.81370505062E+01 0.77654943395E+01 0.75497045315E+01 0.75497045315E+01
 0.76194294533E+01 0.78328047898E+01 0.82000070747E+01 0.87313752624E+01 0.94288647575E+01
 0.10271132111E+02 0.11191033468E+02 0.12057173410E+02 0.12681181945E+02 0.12836325452E+02
 0.12293748027E+02 0.10954663866E+02 0.89148403112E+01 0.64537428839E+01 0.39625206567E+01
 0.18454883933E+01 0.43483620396E+00 -.59057952463E-01 0.43483620396E+00 0.18454883933E+01
 0.39625206567E+01 0.64537428839E+01 0.89148403112E+01 0.10954663866E+02 0.12293748027E+02
 0.12836325452E+02 0.12681181945E+02 0.12057173410E+02 0.11191033468E+02 0.10271132111E+02
 0.94288647575E+01 0.87313752624E+01 0.82000070747E+01 0.78328047898E+01 0.76194294533E+01
 0.77654943395E+01 0.78328047898E+01 0.80385012239E+01 0.83920254448E+01 0.89036342743E+01
 0.95763939132E+01 0.10392168175E+02 0.11290998696E+02 0.12153562880E+02 0.12805638421E+02
 0.13040747120E+02 0.12641575705E+02 0.11500523243E+02 0.96893275546E+01 0.74545350837E+01
 0.51556427300E+01 0.31768021889E+01 0.18454883933E+01 0.13768971100E+01 0.18454883933E+01
 0.31768021889E+01 0.51556427300E+01 0.74545350837E+01 0.96893275546E+01 0.11500523243E+02
 0.12641575705E+02 0.13040747120E+02 0.12805638421E+02 0.12153562880E+02 0.11290998696E+02
 0.10392168175E+02 0.95763939132E+01 0.89036342743E+01 0.83920254448E+01 0.80385012239E+01
 0.78328047898E+01 0.81370505062E+01 0.82000070747E+01 0.83920254448E+01 0.87214121359E+01
 0.91980503069E+01 0.98263552765E+01 0.10592811294E+02 0.11448162429E+02 0.12291405821E+02
 0.12970474881E+02 0.13306675065E+02 0.13106840662E+02 0.12253556324E+02 0.10784540889E+02
 0.88978932540E+01 0.69049556589E+01 0.51556427300E+01 0.39625206567E+01 0.35395235721E+01
 0.39625206567E+01 0.51556427300E+01 0.69049556589E+01 0.88978932540E+01 0.10784540889E+02
 0.12253556324E+02 0.13106840662E+02 0.13306675065E+02 0.12970474881E+02 0.12291405821E+02
 0.11448162429E+02 0.10592811294E+02 0.98263552765E+01 0.91980503069E+01 0.87214121359E+01
 0.83920254448E+01 0.82000070747E+01 0.86747286007E+01 0.87313752624E+01 0.89036342743E+01
 0.91980503069E+01 0.96233233784E+01 0.10184813127E+02 0.10874253795E+02 0.11655173719E+02
 0.12448834606E+02 0.13131418529E+02 0.13553702796E+02 0.13559421223E+02 0.13028250058E+02
 0.11961534021E+02 0.10500864621E+02 0.88978932540E+01 0.74545350837E+01 0.64537428839E+01
 0.60960020000E+01 0.64537428839E+01 0.74545350837E+01 0.88978932540E+01 0.10500864621E+02
 0.11961534021E+02 0.13028250058E+02 0.13559421223E+02 0.13553702796E+02 0.13131418529E+02
 0.12448834606E+02 0.11655173719E+02 0.10874253795E+02 0.10184813127E+02 0.96233233784E+01
 0.91980503069E+01 0.89036342743E+01 0.87313752624E+01 0.93800621750E+01 0.94288647575E+01
 0.95763939132E+01 0.98263552765E+01 0.10184813127E+02 0.10656987768E+02 0.11239670385E+02
 0.11909757586E+02 0.12612156703E+02 0.13254454564E+02 0.13717900967E+02 0.13883711825E+02
 0.13646697541E+02 0.12977607677E+02 0.11961534021E+02 0.10784540889E+02 0.96893275546E+01
 0.89148403112E+01 0.86353977374E+01 0.89148403112E+01 0.96893275546E+01 0.10784540889E+02
 0.11961534021E+02 0.12977607677E+02 0.13646697541E+02 0.13883711825E+02 0.13717900967E+02
 0.13254454564E+02 0.12612156703E+02 0.11909757586E+02 0.11239670385E+02 0.10656987768E+02
 0.10184813127E+02 0.98263552765E+01 0.95763939132E+01 0.94288647575E+01 0.10230553192E+02
 0.10271132111E+02 0.10392168175E+02 0.10592811294E+02 0.10874253795E+02 0.11239670385E+02
 0.11689746558E+02 0.12213910047E+02 0.12779827967E+02 0.13326533900E+02 0.13768309034E+02
 0.14013599031E+02 0.13987315121E+02 0.13646697541E+02 0.13028250058E+02 0.12253556324E+02
 0.11500523243E+02 0.10954663866E+02 0.10755461313E+02 0.10954663866E+02 0.11500523243E+02
 0.12253556324E+02 0.13028250058E+02 0.13646697541E+02 0.13987315121E+02 0.14013599031E+02
 0.13768309034E+02 0.13326533900E+02 0.12779827967E+02 0.12213910047E+02 0.11689746558E+02
 0.11239670385E+02 0.10874253795E+02 0.10592811294E+02 0.10392168175E+02 0.10271132111E+02
 0.11156515294E+02 0.11191033468E+02 0.11290998696E+02 0.11448162429E+02 0.11655173719E+02
 0.11909757586E+02 0.12213910047E+02 0.12567467816E+02 0.12958526169E+02 0.13355358326E+02
 0.13705200628E+02 0.13943604406E+02 0.14013599031E+02 0.13883711825E+02 0.13559421223E+02
 0.13106840662E+02 0.12641575705E+02 0.12293748027E+02 0.12165024660E+02 0.12293748027E+02
 0.12641575705E+02 0.13106840662E+02 0.13559421223E+02 0.13883711825E+02 0.14013599031E+02
 0.13943604406E+02 0.13705200628E+02 0.13355358326E+02 0.12958526169E+02 0.12567467816E+02
 0.12213910047E+02 0.11909757586E+02 0.11655173719E+02 0.11448162429E+02 0.11290998696E+02
 0.11191033468E+02 0.12022334732E+02 0.12057173410E+02 0.12153562880E+02 0.12291405821E+02
 0.12448834606E+02 0.12612156703E+02 0.12779827967E+02 0.12958526169E+02 0.13153791734E+02
 0.13360197611E+02 0.13555965229E+02 0.13705200628E+02 0.13768309034E+02 0.13717900967E+02
 0.13553702796E+02 0.13306675065E+02 0.13040747120E+02 0.12836325452E+02 0.12759664857E+02
 0.12836325452E+02 0.13040747120E+02 0.13306675065E+02 0.13553702796E+02 0.13717900967E+02
 0.13768309034E+02 0.13705200628E+02 0.13555965229E+02 0.13360197611E+02 0.13153791734E+02
 0.12958526169E+02 0.12779827967E+02 0.12612156703E+02 0.12448834606E+02 0.12291405821E+02
 0.12153562880E+02 0.12057173410E+02 0.12634721507E+02 0.12681181945E+02 0.12805638421E+02
 0.12970474881E+02 0.13131418529E+02 0.13254454564E+02 0.13326533900E+02 0.13355358326E+02
 0.13360197611E+02 0.13359361686E+02 0.13360197611E+02 0.13355358326E+02 0.13326533900E+02
 0.13254454564E+02 0.13131418529E+02 0.12970474881E+02 0.12805638421E+02 0.12681181945E+02
 0.12634721507E+02 0.12681181945E+02 0.12805638421E+02 0.12970474881E+02 0.13131418529E+02
 0.13254454564E+02 0.13326533900E+02 0.13355358326E+02 0.13360197611E+02 0.13359361686E+02
 0.13360197611E+02 0.13355358326E+02 0.13326533900E+02 0.13254454564E+02 0.13131418529E+02
 0.12970474881E+02 0.12805638421E+02 0.12681181945E+02 0.12759664857E+02 0.12836325452E+02
 0.13040747120E+02 0.13306675065E+02 0.13553702796E+02 0.13717900967E+02 0.13768309034E+02
 0.13705200628E+02 0.13555965229E+02 0.13360197611E+02 0.13153791734E+02 0.12958526169E+02
 0.12779827967E+02 0.12612156703E+02 0.12448834606E+02 0.12291405821E+02 0.12153562880E+02
 0.12057173410E+02 0.12022334732E+02 0.12057173410E+02 0.12153562880E+02 0.12291405821E+02
 0.12448834606E+02 0.12612156703E+02 0.12779827967E+02 0.12958526169E+02 0.13153791734E+02
 0.13360197611E+02 0.13555965229E+02 0.13705200628E+02 0.13768309034E+02 0.13717900967E+02
 0.13553702796E+02 0.13306675065E+02 0.13040747120E+02 0.12836325452E+02 0.12165024660E+02
 0.12293748027E+02 0.12641575705E+02 0.13106840662E+02 0.13559421223E+02 0.13883711825E+02
 0.14013599031E+02 0.13943604406E+02 0.13705200628E+02 0.13355358326E+02 0.12958526169E+02
 0.12567467816E+02 0.12213910047E+02 0.11909757586E+02 0.11655173719E+02 0.11448162429E+02
 0.11290998696E+02 0.11191033468E+02 0.11156515294E+02 0.11191033468E+02 0.11290998696E+02
 0.11448162429E+02 0.11655173719E+02 0.11909757586E+02 0.12213910047E+02 0.12567467816E+02
 0.12958526169E+02 0.13355358326E+02 0.13705200628E+02 0.13943604406E+02 0.14013599031E+02
 0.13883711825E+02 0.13559421223E+02 0.13106840662E+02 0.12641575705E+02 0.12293748027E+02
 0.10755461313E+02 0.10954663866E+02 0.11500523243E+02 0.12253556324E+02 0.13028250058E+02
 0.13646697541E+02 0.13987315121E+02 0.14013599031E+02 0.13768309034E+02 0.13326533900E+02
 0.12779827967E+02 0.12213910047E+02 0.11689746558E+02 0.11239670385E+02 0.10874253795E+02
 0.10592811294E+02 0.10392168175E+02 0.10271132111E+02 0.10230553192E+02 0.10271132111E+02
 0.10392168175E+02 0.10592811294E+02 0.10874253795E+02 0.11239670385E+02 0.11689746558E+02
 0.12213910047E+02 0.12779827967E+02 0.13326533900E+02 0.13768309034E+02 0.14013599031E+02
 0.13987315121E+02 0.13646697541E+02 0.13028250058E+02 0.12253556324E+02 0.11500523243E+02
 0.10954663866E+02 0.86353977374E+01 0.89148403112E+01 0.96893275546E+01 0.10784540889E+02
 0.11961534021E+02 0.12977607677E+02 0.13646697541E+02 0.13883711825E+02 0.13717900967E+02
 0.13254454564E+02 0.12612156703E+02 0.11909757586E+02 0.11239670385E+02 0.10656987768E+02
 0.10184813127E+02 0.98263552765E+01 0.95763939132E+01 0.94288647575E+01 0.93800621750E+01
 0.94288647575E+01 0.95763939132E+01 0.98263552765E+01 0.10184813127E+02 0.10656987768E+02
 0.11239670385E+02 0.11909757586E+02 0.12612156703E+02 0.13254454564E+02 0.13717900967E+02
 0.13883711825E+02 0.13646697541E+02 0.12977607677E+02 0.11961534021E+02 0.10784540889E+02
 0.96893275546E+01 0.89148403112E+01 0.60960020000E+01 0.64537428839E+01 0.74545350837E+01
 0.88978932540E+01 0.10500864621E+02 0.11961534021E+02 0.13028250058E+02 0.13559421223E+02
 0.13553702796E+02 0.13131418529E+02 0.12448834606E+02 0.11655173719E+02 0.10874253795E+02
 0.10184813127E+02 0.96233233784E+01 0.91980503069E+01 0.89036342743E+01 0.87313752624E+01
 0.86747286007E+01 0.87313752624E+01 0.89036342743E+01 0.91980503069E+01 0.96233233784E+01
 0.10184813127E+02 0.10874253795E+02 0.11655173719E+02 0.12448834606E+02 0.13131418529E+02
 0.13553702796E+02 0.13559421223E+02 0.13028250058E+02 0.11961534021E+02 0.10500864621E+02
 0.88978932540E+01 0.74545350837E+01 0.64537428839E+01 0.35395235721E+01 0.39625206567E+01
 0.51556427300E+01 0.69049556589E+01 0.88978932540E+01 0.10784540889E+02 0.12253556324E+02
 0.13106840662E+02 0.13306675065E+02 0.12970474881E+02 0.12291405821E+02 0.11448162429E+02
 0.10592811294E+02 0.98263552765E+01 0.91980503069E+01 0.87214121359E+01 0.83920254448E+01
 0.82000070747E+01 0.81370505062E+01 0.82000070747E+01 0.83920254448E+01 0.87214121359E+01
 0.91980503069E+01 0.98263552765E+01 0.10592811294E+02 0.11448162429E+02 0.12291405821E+02
 0.12970474881E+02 0.13306675065E+02 0.13106840662E+02 0.12253556324E+02 0.10784540889E+02
 0.88978932540E+01 0.69049556589E+01 0.51556427300E+01 0.39625206567E+01 0.13768971100E+01
 0.18454883933E+01 0.31768021889E+01 0.51556427300E+01 0.74545350837E+01 0.96893275546E+01
 0.11500523243E+02 0.12641575705E+02 0.13040747120E+02 0.12805638421E+02 0.12153562880E+02
 0.11290998696E+02 0.10392168175E+02 0.95763939132E+01 0.89036342743E+01 0.83920254448E+01
 0.80385012239E+01 0.78328047898E+01 0.77654943395E+01 0.78328047898E+01 0.80385012239E+01
 0.83920254448E+01 0.89036342743E+01 0.95763939132E+01 0.10392168175E+02 0.11290998696E+02
 0.12153562880E+02 0.12805638421E+02 0.13040747120E+02 0.12641575705E+02 0.11500523243E+02
 0.96893275546E+01 0.74545350837E+01 0.51556427300E+01 0.31768021889E+01 0.18454883933E+01
 -.59057952463E-01 0.43483620396E+00 0.18454883933E+01 0.39625206567E+01 0.64537428839E+01
 0.89148403112E+01 0.10954663866E+02 0.12293748027E+02 0.12836325452E+02 0.12681181945E+02
 0.12057173410E+02 0.11191033468E+02 0.10271132111E+02 0.94288647575E+01 0.87313752624E+01
 0.82000070747E+01 0.78328047898E+01 0.76194294533E+01 0.75497045315E+01 0.76194294533E+01
 0.78328047898E+01 0.82000070747E+01 0.87313752624E+01 0.94288647575E+01 0.10271132111E+02
 0.11191033468E+02 0.12057173410E+02 0.12681181945E+02 0.12836325452E+02 0.12293748027E+02
 0.10954663866E+02 0.89148403112E+01 0.64537428839E+01 0.39625206567E+01 0.18454883933E+01
 0.43483620396E+00 -.59057952463E-01 0.43483620396E+00 0.18454883933E+01 0.39625206567E+01
 0.64537428839E+01 0.89148403112E+01 0.10954663866E+02 0.12293748027E+02 0.12836325452E+02
 0.12681181945E+02 0.12057173410E+02 0.11191033468E+02 0.10271132111E+02 0.94288647575E+01
 0.87313752624E+01 0.82000070747E+01 0.78328047898E+01 0.76194294533E+01 0.75497045315E+01
 0.76194294533E+01 0.78328047898E+01 0.82000070747E+01 0.87313752624E+01 0.94288647575E+01
 0.10271132111E+02 0.11191033468E+02 0.12057173410E+02 0.12681181945E+02 0.12836325452E+02
 0.12293748027E+02 0.10954663866E+02 0.89148403112E+01 0.64537428839E+01 0.39625206567E+01
 0.18454883933E+01 0.43483620396E+00 0.43483620396E+00 0.92035131383E+00 0.23045107704E+01
 0.43748988925E+01 0.68006367623E+01 0.91842238177E+01 0.11145376673E+02 0.12415926257E+02
 0.12908367913E+02 0.12724627435E+02 0.12089979476E+02 0.11224137362E+02 0.10310665846E+02
 0.94768275044E+01 0.87872793590E+01 0.82622450170E+01 0.78993850927E+01 0.76884099196E+01
 0.76194294533E+01 0.76884099196E+01 0.78993850927E+01 0.82622450170E+01 0.87872793590E+01
 0.94768275044E+01 0.10310665846E+02 0.11224137362E+02 0.12089979476E+02 0.12724627435E+02
 0.12908367913E+02 0.12415926257E+02 0.11145376673E+02 0.91842238177E+01 0.68006367623E+01
 0.43748988925E+01 0.23045107704E+01 0.92035131383E+00 0.18454883933E+01 0.23045107704E+01
 0.36066606311E+01 0.55367019548E+01 0.77701486064E+01 0.99301249453E+01 0.11667367615E+02
 0.12745525100E+02 0.13100031688E+02 0.12840781046E+02 0.12180660992E+02 0.11320031869E+02
 0.10428579281E+02 0.96217469565E+01 0.89571648931E+01 0.84519414681E+01 0.81027228349E+01
 0.78993850927E+01 0.78328047898E+01 0.78993850927E+01 0.81027228349E+01 0.84519414681E+01
 0.89571648931E+01 0.96217469565E+01 0.10428579281E+02 0.11320031869E+02 0.12180660992E+02
 0.12840781046E+02 0.13100031688E+02 0.12745525100E+02 0.11667367615E+02 0.99301249453E+01
 0.77701486064E+01 0.55367019548E+01 0.36066606311E+01 0.23045107704E+01 0.39625206567E+01
 0.43748988925E+01 0.55367019548E+01 0.72361678270E+01 0.91655643797E+01 0.10982691782E+02
 0.12385548452E+02 0.13184688990E+02 0.13347996749E+02 0.12993860750E+02 0.12310162836E+02
 0.11470941725E+02 0.10624085799E+02 0.98671337186E+01 0.92472551226E+01 0.87770569355E+01
 0.84519414681E+01 0.82622450170E+01 0.82000070747E+01 0.82622450170E+01 0.84519414681E+01
 0.87770569355E+01 0.92472551226E+01 0.98671337186E+01 0.10624085799E+02 0.11470941725E+02
 0.12310162836E+02 0.12993860750E+02 0.13347996749E+02 0.13184688990E+02 0.12385548452E+02
 0.10982691782E+02 0.91655643797E+01 0.72361678270E+01 0.55367019548E+01 0.43748988925E+01
 0.64537428839E+01 0.68006367623E+01 0.77701486064E+01 0.91655643797E+01 0.10710043999E+02
 0.12109497475E+02 0.13120526848E+02 0.13608436259E+02 0.13575698042E+02 0.13141758492E+02
 0.12457986126E+02 0.11670185123E+02 0.10898559782E+02 0.10218940022E+02 0.96660156095E+01
 0.92472551226E+01 0.89571648931E+01 0.87872793590E+01 0.87313752624E+01 0.87872793590E+01
 0.89571648931E+01 0.92472551226E+01 0.96660156095E+01 0.10218940022E+02 0.10898559782E+02
 0.11670185123E+02 0.12457986126E+02 0.13141758492E+02 0.13575698042E+02 0.13608436259E+02
 0.13120526848E+02 0.12109497475E+02 0.10710043999E+02 0.91655643797E+01 0.77701486064E+01
 0.68006367623E+01 0.89148403112E+01 0.91842238177E+01 0.99301249453E+01 0.10982691782E+02
 0.12109497475E+02 0.13075257826E+02 0.13700854643E+02 0.13906257344E+02 0.13722715264E+02
 0.13252563793E+02 0.12611753550E+02 0.11916238535E+02 0.11255568529E+02 0.10682581327E+02
 0.10218940022E+02 0.98671337186E+01 0.96217469565E+01 0.94768275044E+01 0.94288647575E+01
 0.94768275044E+01 0.96217469565E+01 0.98671337186E+01 0.10218940022E+02 0.10682581327E+02
 0.11255568529E+02 0.11916238535E+02 0.12611753550E+02 0.13252563793E+02 0.13722715264E+02
 0.13906257344E+02 0.13700854643E+02 0.13075257826E+02 0.12109497475E+02 0.10982691782E+02
 0.99301249453E+01 0.91842238177E+01 0.10954663866E+02 0.11145376673E+02 0.11667367615E+02
 0.12385548452E+02 0.13120526848E+02 0.13700854643E+02 0.14010368051E+02 0.14015854352E+02
 0.13759623718E+02 0.13314686569E+02 0.12770912564E+02 0.12211864135E+02 0.11696495372E+02
 0.11255568529E+02 0.10898559782E+02 0.10624085799E+02 0.10428579281E+02 0.10310665846E+02
 0.10271132111E+02 0.10310665846E+02 0.10428579281E+02 0.10624085799E+02 0.10898559782E+02
 0.11255568529E+02 0.11696495372E+02 0.12211864135E+02 0.12770912564E+02 0.13314686569E+02
 0.13759623718E+02 0.14015854352E+02 0.14010368051E+02 0.13700854643E+02 0.13120526848E+02
 0.12385548452E+02 0.11667367615E+02 0.11145376673E+02 0.12293748027E+02 0.12415926257E+02
 0.12745525100E+02 0.13184688990E+02 0.13608436259E+02 0.13906257344E+02 0.14015854352E+02
 0.13932695531E+02 0.13687500357E+02 0.13336480393E+02 0.12942753632E+02 0.12557695231E+02
 0.12211864135E+02 0.11916238535E+02 0.11670185123E+02 0.11470941725E+02 0.11320031869E+02
 0.11224137362E+02 0.11191033468E+02 0.11224137362E+02 0.11320031869E+02 0.11470941725E+02
 0.11670185123E+02 0.11916238535E+02 0.12211864135E+02 0.12557695231E+02 0.12942753632E+02
 0.13336480393E+02 0.13687500357E+02 0.13932695531E+02 0.14015854352E+02 0.13906257344E+02
 0.13608436259E+02 0.13184688990E+02 0.12745525100E+02 0.12415926257E+02 0.12836325452E+02
 0.12908367913E+02 0.13100031688E+02 0.13347996749E+02 0.13575698042E+02 0.13722715264E+02
 0.13759623718E+02 0.13687500357E+02 0.13533721191E+02 0.13337249227E+02 0.13133204523E+02
 0.12942753632E+02 0.12770912564E+02 0.12611753550E+02 0.12457986126E+02 0.12310162836E+02
 0.12180660992E+02 0.12089979476E+02 0.12057173410E+02 0.12089979476E+02 0.12180660992E+02
 0.12310162836E+02 0.12457986126E+02 0.12611753550E+02 0.12770912564E+02 0.12942753632E+02
 0.13133204523E+02 0.13337249227E+02 0.13533721191E+02 0.13687500357E+02 0.13759623718E+02
 0.13722715264E+02 0.13575698042E+02 0.13347996749E+02 0.13100031688E+02 0.12908367913E+02
 0.12681181945E+02 0.12724627435E+02 0.12840781046E+02 0.12993860750E+02 0.13141758492E+02