   4   4   0   0
  0.1648739E+02  0.4040210E-09  0.4040210E-09  0.4040210E-09  0.5000000E-15
  1.000000000000000E-004
  CAR 
 Al                                      
     44.39535805     -5.39329126  301      8.14976905      1.00000000
     -5.393  0.0000E+00  0.0000E+00
     -5.227  0.0000E+00  0.0000E+00
     -5.061  0.0000E+00  0.0000E+00
     -4.895  0.0000E+00  0.0000E+00
     -4.729  0.0000E+00  0.0000E+00
     -4.563  0.0000E+00  0.0000E+00
     -4.398  0.0000E+00  0.0000E+00
     -4.232  0.0000E+00  0.0000E+00
     -4.066  0.0000E+00  0.0000E+00
     -3.900  0.0000E+00  0.0000E+00
     -3.734  0.0000E+00  0.0000E+00
     -3.568  0.0000E+00  0.0000E+00
     -3.402  0.1855E-15  0.3079E-16
     -3.236  0.3314E-04  0.5500E-05
     -3.070  0.2399E-01  0.3986E-02
     -2.904  0.1548E+00  0.2968E-01
     -2.738  0.3021E+00  0.7982E-01
     -2.572  0.2132E+00  0.1152E+00
     -2.406  0.4713E+00  0.1934E+00
     -2.240  0.6758E+00  0.3056E+00
     -2.074  0.7068E-01  0.3173E+00
     -1.908  0.3383E+00  0.3734E+00
     -1.742  0.7944E+00  0.5053E+00
     -1.576  0.7204E+00  0.6248E+00
     -1.410  0.4105E+00  0.6930E+00
     -1.244  0.5790E+00  0.7891E+00
     -1.078  0.1141E+01  0.9785E+00
     -0.912  0.3811E-01  0.9848E+00
     -0.746  0.6145E+00  0.1087E+01
     -0.580  0.1248E+01  0.1294E+01
     -0.414  0.7485E+00  0.1418E+01
     -0.248  0.6423E+00  0.1525E+01
     -0.083  0.1181E+01  0.1721E+01
      0.083  0.4816E+00  0.1801E+01
      0.249  0.3957E+00  0.1866E+01
      0.415  0.8166E+00  0.2002E+01
      0.581  0.1751E+01  0.2292E+01
      0.747  0.7546E+00  0.2418E+01
      0.913  0.7016E+00  0.2534E+01
      1.079  0.1816E+01  0.2836E+01
      1.245  0.3098E+00  0.2887E+01
      1.411  0.3292E+00  0.2942E+01
      1.577  0.1297E+01  0.3157E+01
      1.743  0.1464E+01  0.3400E+01
      1.909  0.1135E+01  0.3588E+01
      2.075  0.7184E+00  0.3708E+01
      2.241  0.1681E+01  0.3987E+01
      2.407  0.2043E+00  0.4020E+01
      2.573  0.1811E+01  0.4321E+01
      2.739  0.1804E+01  0.4620E+01
      2.905  0.7232E+00  0.4740E+01
      3.071  0.8520E+00  0.4882E+01
      3.237  0.1974E+01  0.5209E+01
      3.403  0.5867E+00  0.5307E+01
      3.569  0.1054E+00  0.5324E+01
      3.735  0.2095E+01  0.5672E+01
      3.901  0.1489E+01  0.5919E+01
      4.067  0.1260E+01  0.6128E+01
      4.233  0.2331E+01  0.6515E+01
      4.398  0.1262E+01  0.6724E+01
      4.564  0.1073E+01  0.6902E+01
      4.730  0.1063E+01  0.7079E+01
      4.896  0.1279E+01  0.7291E+01
      5.062  0.1591E+01  0.7555E+01
      5.228  0.1004E+01  0.7721E+01
      5.394  0.2457E+01  0.8129E+01
      5.560  0.1093E+01  0.8311E+01
      5.726  0.8822E+00  0.8457E+01
      5.892  0.2309E+01  0.8840E+01
      6.058  0.1469E+01  0.9084E+01
      6.224  0.9475E+00  0.9241E+01
      6.390  0.1863E+01  0.9550E+01
      6.556  0.1574E+01  0.9812E+01
      6.722  0.6857E+00  0.9926E+01
      6.888  0.1356E+01  0.1015E+02
      7.054  0.2191E+01  0.1051E+02
      7.220  0.1805E+01  0.1081E+02
      7.386  0.1454E+01  0.1106E+02
      7.552  0.2144E+01  0.1141E+02
      7.718  0.1023E+01  0.1158E+02
      7.884  0.8644E+00  0.1172E+02
      8.050  0.9379E+00  0.1188E+02
      8.216  0.1541E+01  0.1214E+02
      8.382  0.2144E+01  0.1249E+02
      8.548  0.2577E+01  0.1292E+02
      8.713  0.1355E+01  0.1314E+02
      8.879  0.1488E+01  0.1339E+02
      9.045  0.2748E+01  0.1385E+02
      9.211  0.2129E+01  0.1420E+02
      9.377  0.8463E+00  0.1434E+02
      9.543  0.1704E+01  0.1462E+02
      9.709  0.1125E+01  0.1481E+02
      9.875  0.1274E+01  0.1502E+02
     10.041  0.1942E+01  0.1534E+02
     10.207  0.1708E+01  0.1563E+02
     10.373  0.2335E+01  0.1601E+02
     10.539  0.2569E+01  0.1644E+02
     10.705  0.1014E+01  0.1661E+02
     10.871  0.2284E+01  0.1699E+02
     11.037  0.2008E+01  0.1732E+02
     11.203  0.3755E+00  0.1738E+02
     11.369  0.1868E+01  0.1769E+02
     11.535  0.2618E+01  0.1813E+02
     11.701  0.4061E+01  0.1880E+02
     11.867  0.1332E+01  0.1902E+02
     12.033  0.2243E+01  0.1940E+02
     12.199  0.6964E+00  0.1951E+02
     12.365  0.2782E+01  0.1997E+02
     12.531  0.5988E+00  0.2007E+02
     12.697  0.1667E+01  0.2035E+02
     12.863  0.1776E+01  0.2064E+02
     13.029  0.3742E+01  0.2127E+02
     13.194  0.1279E+01  0.2148E+02
     13.360  0.2623E+01  0.2191E+02
     13.526  0.2554E+01  0.2234E+02
     13.692  0.1554E+01  0.2259E+02
     13.858  0.2808E+01  0.2306E+02
     14.024  0.3415E+01  0.2363E+02
     14.190  0.9522E+00  0.2379E+02
     14.356  0.1947E+01  0.2411E+02
     14.522  0.1967E+01  0.2443E+02
     14.688  0.2930E+01  0.2492E+02
     14.854  0.4627E+01  0.2569E+02
     15.020  0.8464E+00  0.2583E+02
     15.186  0.1492E+01  0.2608E+02
     15.352  0.1102E+01  0.2626E+02
     15.518  0.1660E+01  0.2654E+02
     15.684  0.1493E+01  0.2678E+02
     15.850  0.4626E+01  0.2755E+02
     16.016  0.2412E+01  0.2795E+02
     16.182  0.7203E+00  0.2807E+02
     16.348  0.2186E+01  0.2843E+02
     16.514  0.2258E+01  0.2881E+02
     16.680  0.1395E+01  0.2904E+02
     16.846  0.1887E+01  0.2935E+02
     17.012  0.2769E+01  0.2981E+02
     17.178  0.1298E+01  0.3003E+02
     17.344  0.3494E+01  0.3061E+02
     17.509  0.2229E+01  0.3098E+02
     17.675  0.2833E+01  0.3145E+02
     17.841  0.2845E+01  0.3192E+02
     18.007  0.1022E+01  0.3209E+02
     18.173  0.1349E+01  0.3231E+02
     18.339  0.4271E+01  0.3302E+02
     18.505  0.2263E+01  0.3340E+02
     18.671  0.1678E+01  0.3368E+02
     18.837  0.2229E+01  0.3405E+02
     19.003  0.1079E+01  0.3423E+02
     19.169  0.1783E+01  0.3452E+02
     19.335  0.2021E+01  0.3486E+02
     19.501  0.2496E+01  0.3527E+02
     19.667  0.2544E+01  0.3569E+02
     19.833  0.2894E+01  0.3617E+02
     19.999  0.4945E+01  0.3699E+02
     20.165  0.4419E+01  0.3773E+02
     20.331  0.4152E+01  0.3842E+02
     20.497  0.1590E+01  0.3868E+02
     20.663  0.1344E+01  0.3890E+02
     20.829  0.1925E+01  0.3922E+02
     20.995  0.1825E+01  0.3953E+02
     21.161  0.1524E+01  0.3978E+02
     21.327  0.2837E+01  0.4025E+02
     21.493  0.1775E+01  0.4054E+02
     21.659  0.1469E+01  0.4079E+02
     21.825  0.4783E+01  0.4158E+02
     21.990  0.2860E+01  0.4206E+02
     22.156  0.4121E+01  0.4274E+02
     22.322  0.6649E+00  0.4285E+02
     22.488  0.1475E+01  0.4310E+02
     22.654  0.3092E+01  0.4361E+02
     22.820  0.3033E+01  0.4411E+02
     22.986  0.2672E+01  0.4456E+02
     23.152  0.3303E+01  0.4510E+02
     23.318  0.2079E+01  0.4545E+02
     23.484  0.1809E+01  0.4575E+02
     23.650  0.2631E+01  0.4619E+02
     23.816  0.1884E+01  0.4650E+02
     23.982  0.5243E+01  0.4737E+02
     24.148  0.2837E+01  0.4784E+02
     24.314  0.3037E+01  0.4834E+02
     24.480  0.3486E+01  0.4892E+02
     24.646  0.4905E+00  0.4900E+02
     24.812  0.2670E+01  0.4945E+02
     24.978  0.5149E+01  0.5030E+02
     25.144  0.3193E+01  0.5083E+02
     25.310  0.9029E+00  0.5098E+02
     25.476  0.2671E+01  0.5142E+02
     25.642  0.1904E+01  0.5174E+02
     25.808  0.3944E+01  0.5239E+02
     25.974  0.2944E+01  0.5288E+02
     26.140  0.4047E+01  0.5355E+02
     26.305  0.1242E+01  0.5376E+02
     26.471  0.2910E+01  0.5424E+02
     26.637  0.4650E+01  0.5502E+02
     26.803  0.3439E+01  0.5559E+02
     26.969  0.2734E+01  0.5604E+02
     27.135  0.2093E+01  0.5639E+02
     27.301  0.3624E+01  0.5699E+02
     27.467  0.4194E+01  0.5768E+02
     27.633  0.2037E+01  0.5802E+02
     27.799  0.1105E+01  0.5821E+02
     27.965  0.1400E+01  0.5844E+02
     28.131  0.3270E+01  0.5898E+02
     28.297  0.3975E+01  0.5964E+02
     28.463  0.3760E+01  0.6026E+02
     28.629  0.8138E+00  0.6040E+02
     28.795  0.3768E+01  0.6102E+02
     28.961  0.4414E+01  0.6176E+02
     29.127  0.2819E+01  0.6223E+02
     29.293  0.2960E+01  0.6272E+02
     29.459  0.2095E+01  0.6306E+02
     29.625  0.4761E+01  0.6385E+02
     29.791  0.4836E+01  0.6466E+02
     29.957  0.4487E+01  0.6540E+02
     30.123  0.2520E+01  0.6582E+02
     30.289  0.2103E+01  0.6617E+02
     30.455  0.1483E+01  0.6641E+02
     30.620  0.1722E+01  0.6670E+02
     30.786  0.3485E+01  0.6728E+02
     30.952  0.1324E+01  0.6750E+02
     31.118  0.2778E+01  0.6796E+02
     31.284  0.5580E+01  0.6889E+02
     31.450  0.2799E+01  0.6935E+02
     31.616  0.5435E+01  0.7025E+02
     31.782  0.4701E+01  0.7103E+02
     31.948  0.5256E+01  0.7190E+02
     32.114  0.1332E+01  0.7213E+02
     32.280  0.3743E+01  0.7275E+02
     32.446  0.1682E+01  0.7303E+02
     32.612  0.3277E+01  0.7357E+02
     32.778  0.1030E+01  0.7374E+02
     32.944  0.2243E+01  0.7411E+02
     33.110  0.5104E+01  0.7496E+02
     33.276  0.1566E+01  0.7522E+02
     33.442  0.5168E+01  0.7608E+02
     33.608  0.2339E+01  0.7647E+02
     33.774  0.4513E+01  0.7722E+02
     33.940  0.2487E+01  0.7763E+02
     34.106  0.1583E+01  0.7789E+02
     34.272  0.3053E+01  0.7840E+02
     34.438  0.2139E+01  0.7875E+02
     34.604  0.3257E+01  0.7929E+02
     34.770  0.1030E+01  0.7946E+02
     34.936  0.4608E+00  0.7954E+02
     35.101  0.1180E+01  0.7974E+02
     35.267  0.1859E+01  0.8004E+02
     35.433  0.1729E+01  0.8033E+02
     35.599  0.7870E+00  0.8046E+02
     35.765  0.1188E+01  0.8066E+02
     35.931  0.1890E+01  0.8097E+02
     36.097  0.4809E+00  0.8105E+02
     36.263  0.3228E+01  0.8159E+02
     36.429  0.1442E+01  0.8183E+02
     36.595  0.1950E+01  0.8215E+02
     36.761  0.2935E+01  0.8264E+02
     36.927  0.1290E+01  0.8285E+02
     37.093  0.2346E+01  0.8324E+02
     37.259  0.1321E+01  0.8346E+02
     37.425  0.4922E+00  0.8354E+02
     37.591  0.2746E+01  0.8400E+02
     37.757  0.2667E+01  0.8444E+02
     37.923  0.2039E+01  0.8478E+02
     38.089  0.1408E+01  0.8501E+02
     38.255  0.2805E+01  0.8548E+02
     38.421  0.5296E+01  0.8636E+02
     38.587  0.1834E+01  0.8666E+02
     38.753  0.3344E+01  0.8722E+02
     38.919  0.1890E+01  0.8753E+02
     39.085  0.1280E+01  0.8774E+02
     39.251  0.2854E+01  0.8822E+02
     39.416  0.4057E+01  0.8889E+02
     39.582  0.3436E+01  0.8946E+02
     39.748  0.2292E+01  0.8984E+02
     39.914  0.3432E+01  0.9041E+02
     40.080  0.3112E+01  0.9093E+02
     40.246  0.3894E+01  0.9157E+02
     40.412  0.3070E+01  0.9208E+02
     40.578  0.4076E+01  0.9276E+02
     40.744  0.4134E+01  0.9345E+02
     40.910  0.1708E+01  0.9373E+02
     41.076  0.2367E+01  0.9412E+02
     41.242  0.2851E+01  0.9459E+02
     41.408  0.2814E+01  0.9506E+02
     41.574  0.2656E+01  0.9550E+02
     41.740  0.5561E+00  0.9559E+02
     41.906  0.8884E+00  0.9574E+02
     42.072  0.9811E+00  0.9590E+02
     42.238  0.5734E+00  0.9600E+02
     42.404  0.2224E-03  0.9600E+02
     42.570  0.0000E+00  0.9600E+02
     42.736  0.0000E+00  0.9600E+02
     42.902  0.0000E+00  0.9600E+02
     43.068  0.0000E+00  0.9600E+02
     43.234  0.0000E+00  0.9600E+02
     43.400  0.0000E+00  0.9600E+02
     43.566  0.0000E+00  0.9600E+02
     43.732  0.0000E+00  0.9600E+02
     43.897  0.0000E+00  0.9600E+02
     44.063  0.0000E+00  0.9600E+02
     44.229  0.0000E+00  0.9600E+02
     44.395  0.0000E+00  0.9600E+02
