    4    4    1    1
  0.1648739E+02  0.4040210E-09  0.4040210E-09  0.4040210E-09  0.5000000E-15
  1.000000000000000E-004
  CAR 
 Al                                      
     12     35     48
 
  0.0000000E+00  0.0000000E+00  0.0000000E+00  0.1953125E-02
      1         -3.130171   1.000000
      2          5.084413   1.000000
      3          5.084413   1.000000
      4          5.084413   1.000000
      5          6.410891   1.000000
      6          6.410891   1.000000
      7          6.410891   1.000000
      8         13.283197   0.000000
      9         13.283197   0.000000
     10         13.283197   0.000000
     11         13.608628   0.000000
     12         13.608628   0.000000
     13         13.608628   0.000000
     14         13.608628   0.000000
     15         13.608628   0.000000
     16         13.608628   0.000000
     17         17.093126   0.000000
     18         17.093126   0.000000
     19         17.093126   0.000000
     20         20.672555   0.000000
     21         20.672555   0.000000
     22         20.672555   0.000000
     23         22.132726   0.000000
     24         22.132726   0.000000
     25         22.132726   0.000000
     26         24.485717   0.000000
     27         27.503742   0.000000
     28         27.503742   0.000000
     29         30.308215   0.000000
     30         32.666133   0.000000
     31         32.666133   0.000000
     32         32.666133   0.000000
     33         33.508619   0.000000
     34         33.508619   0.000000
     35         33.508619   0.000000
     36         35.018506   0.000000
     37         35.018506   0.000000
     38         35.018506   0.000000
     39         35.018506   0.000000
     40         35.018506   0.000000
     41         35.018506   0.000000
     42         40.619625   0.000000
     43         40.619625   0.000000
     44         40.619625   0.000000
     45         41.360276   0.000000
     46         41.462633   0.000000
     47         41.462634   0.000000
     48         41.462639   0.000000
 
  0.1250000E+00  0.7413686E-32  0.0000000E+00  0.1171875E-01
      1         -2.988524   1.000000
      2          3.610843   1.000000
      3          5.214092   1.000000
      4          5.214092   1.000000
      5          6.547434   1.000000
      6          6.547434   1.000000
      7          8.130658   0.705589
      8         11.472272   0.000000
      9         11.472272   0.000000
     10         12.747405   0.000000
     11         12.747405   0.000000
     12         13.422173   0.000000
     13         13.729009   0.000000
     14         13.729009   0.000000
     15         15.681452   0.000000
     16         15.681452   0.000000
     17         17.223067   0.000000
     18         18.165933   0.000000
     19         18.165933   0.000000
     20         19.454415   0.000000
     21         19.454415   0.000000
     22         19.744219   0.000000
     23         21.796392   0.000000
     24         23.554929   0.000000
     25         23.554929   0.000000
     26         25.696607   0.000000
     27         25.804989   0.000000
     28         27.634423   0.000000
     29         30.386313   0.000000
     30         32.740924   0.000000
     31         32.740924   0.000000
     32         32.827412   0.000000
     33         32.827412   0.000000
     34         32.984864   0.000000
     35         33.352874   0.000000
     36         33.352874   0.000000
     37         34.538795   0.000000
     38         34.538795   0.000000
     39         34.544404   0.000000
     40         35.037205   0.000000
     41         35.037205   0.000000
     42         40.411999   0.000000
     43         40.611138   0.000000
     44         40.611138   0.000000
     45         41.213768   0.000000
     46         41.213769   0.000000
     47         41.421714   0.000000
     48         41.538651   0.000000
 
  0.2500000E+00  0.1482737E-31  0.0000000E+00  0.1171875E-01
      1         -2.564359   1.000000
      2          1.875629   1.000000
      3          5.603724   1.000000
      4          5.603724   1.000000
      5          6.953178   1.000000
      6          6.953178   1.000000
      7          9.774013   0.000000
      8          9.774013   0.000000
      9         10.601552   0.000000
     10         11.296214   0.000000
     11         11.296214   0.000000
     12         13.841008   0.000000
     13         14.090303   0.000000
     14         14.090303   0.000000
     15         17.605250   0.000000
     16         17.939767   0.000000
     17         17.939767   0.000000
     18         18.164289   0.000000
     19         18.164289   0.000000
     20         18.192640   0.000000
     21         20.246492   0.000000
     22         20.246492   0.000000
     23         20.978898   0.000000
     24         22.674750   0.000000
     25         25.670716   0.000000
     26         25.670716   0.000000
     27         28.018253   0.000000
     28         28.096176   0.000000
     29         30.282113   0.000000
     30         30.282113   0.000000
     31         30.783625   0.000000
     32         30.783625   0.000000
     33         31.370903   0.000000
     34         31.854717   0.000000
     35         33.333083   0.000000
     36         33.333083   0.000000
     37         33.393242   0.000000
     38         33.393242   0.000000
     39         35.121041   0.000000
     40         35.121041   0.000000
     41         37.130419   0.000000
     42         38.403295   0.000000
     43         40.079589   0.000000
     44         40.079589   0.000000
     45         40.398768   0.000000
     46         40.398768   0.000000
     47         41.451932   0.000000
     48         41.765947   0.000000
 
  0.3750000E+00  0.1607808E-31  0.0000000E+00  0.1171875E-01
      1         -1.860317   1.000000
      2          0.368058   1.000000
      3          6.253323   1.000000
      4          6.253323   1.000000
      5          7.598879   1.000000
      6          7.598879   1.000000
      7          8.337873   0.000000
      8          8.337873   0.000000
      9          9.946169   0.000000
     10          9.946169   0.000000
     11         13.330105   0.000000
     12         14.536724   0.000000
     13         14.692807   0.000000
     14         14.692807   0.000000
     15         16.620922   0.000000
     16         16.620922   0.000000
     17         16.735460   0.000000
     18         18.221216   0.000000
     19         19.415847   0.000000
     20         19.997272   0.000000
     21         20.898322   0.000000
     22         20.898322   0.000000
     23         22.606801   0.000000
     24         22.606801   0.000000
     25         27.021582   0.000000
     26         27.021582   0.000000
     27         27.888960   0.000000
     28         27.888960   0.000000
     29         28.311071   0.000000
     30         28.311071   0.000000
     31         28.661028   0.000000
     32         30.636827   0.000000
     33         30.963937   0.000000
     34         31.869935   0.000000
     35         31.869935   0.000000
     36         32.828285   0.000000
     37         34.257362   0.000000
     38         34.257362   0.000000
     39         35.200374   0.000000
     40         35.200374   0.000000
     41         36.400028   0.000000
     42         37.669869   0.000000
     43         37.870070   0.000000
     44         37.870070   0.000000
     45         39.193630   0.000000
     46         40.007941   0.000000
     47         40.007941   0.000000
     48         42.132238   0.000000
 
  0.5000000E+00  0.2965474E-31  0.0000000E+00  0.5859375E-02
      1         -0.880686   1.000000
      2         -0.880686   1.000000
      3          7.164251   1.000000
      4          7.164251   1.000000
      5          7.164251   1.000000
      6          7.164251   1.000000
      7          8.180338   0.193624
      8          8.180338   0.193624
      9          9.122603   0.000000
     10          9.122603   0.000000
     11         15.508057   0.000000
     12         15.508057   0.000000
     13         15.537247   0.000000
     14         15.537247   0.000000
     15         15.537247   0.000000
     16         15.537247   0.000000
     17         16.282320   0.000000
     18         16.282320   0.000000
     19         19.039344   0.000000
     20         19.039344   0.000000
     21         23.862323   0.000000
     22         23.862323   0.000000
     23         23.862323   0.000000
     24         23.862323   0.000000
     25         24.401964   0.000000
     26         24.401964   0.000000
     27         26.457518   0.000000
     28         26.457518   0.000000
     29         29.545822   0.000000
     30         29.545822   0.000000
     31         30.020146   0.000000
     32         30.020146   0.000000
     33         30.020146   0.000000
     34         30.020146   0.000000
     35         34.168183   0.000000
     36         34.168183   0.000000
     37         34.533417   0.000000
     38         34.533417   0.000000
     39         35.231891   0.000000
     40         35.231891   0.000000
     41         35.736659   0.000000
     42         35.736659   0.000000
     43         35.736659   0.000000
     44         35.736659   0.000000
     45         40.037855   0.000000
     46         40.037855   0.000000
     47         40.908974   0.000000
     48         40.908974   0.000000
 
  0.1250000E+00  0.1250000E+00  0.0000000E+00  0.2343750E-01
      1         -2.847009   1.000000
      2          3.745184   1.000000
      3          3.745184   1.000000
      4          5.343998   1.000000
      5          6.682255   1.000000
      6          8.260621   0.000858
      7          8.260621   0.000858
      8         10.087887   0.000000
      9         11.602971   0.000000
     10         11.602971   0.000000
     11         12.873871   0.000000
     12         12.873871   0.000000
     13         13.851225   0.000000
     14         15.207745   0.000000
     15         15.808817   0.000000
     16         15.808817   0.000000
     17         17.791086   0.000000
     18         18.289471   0.000000
     19         18.289471   0.000000
     20         18.531171   0.000000
     21         19.392023   0.000000
     22         20.947110   0.000000
     23         22.307044   0.000000
     24         23.170107   0.000000
     25         23.821209   0.000000
     26         25.520019   0.000000
     27         26.568066   0.000000
     28         27.021276   0.000000
     29         30.105061   0.000000
     30         31.650252   0.000000
     31         31.650252   0.000000
     32         32.216714   0.000000
     33         33.002069   0.000000
     34         33.219534   0.000000
     35         33.662580   0.000000
     36         33.921531   0.000000
     37         33.921531   0.000000
     38         34.456965   0.000000
     39         34.542572   0.000000
     40         34.542572   0.000000
     41         35.206014   0.000000
     42         39.042832   0.000000
     43         39.487181   0.000000
     44         39.487181   0.000000
     45         41.333061   0.000000
     46         41.333061   0.000000
     47         41.589215   0.000000
     48         41.589215   0.000000
 
  0.2500000E+00  0.1250000E+00  0.0000000E+00  0.4687500E-01
      1         -2.423296   1.000000
      2          2.012228   1.000000
      3          4.147621   1.000000
      4          5.733426   1.000000
      5          7.067347   1.000000
      6          8.453504   0.000000
      7          8.643909   0.000000
      8          9.904632   0.000000
      9         10.721767   0.000000
     10         11.435520   0.000000
     11         11.995775   0.000000
     12         12.837333   0.000000
     13         13.255232   0.000000
     14         16.144840   0.000000
     15         16.194978   0.000000
     16         17.106199   0.000000
     17         17.113046   0.000000
     18         18.292227   0.000000
     19         18.656317   0.000000
     20         20.143483   0.000000
     21         20.361204   0.000000
     22         21.558956   0.000000
     23         21.793419   0.000000
     24         22.837366   0.000000
     25         24.726604   0.000000
     26         25.407159   0.000000
     27         26.748070   0.000000
     28         28.875298   0.000000
     29         29.294756   0.000000
     30         30.246572   0.000000
     31         30.365165   0.000000
     32         30.614526   0.000000
     33         30.712445   0.000000
     34         32.097041   0.000000
     35         33.317101   0.000000
     36         33.565364   0.000000
     37         33.654634   0.000000
     38         33.681394   0.000000
     39         34.535902   0.000000
     40         35.476090   0.000000
     41         37.298740   0.000000
     42         37.709239   0.000000
     43         38.015637   0.000000
     44         38.697775   0.000000
     45         39.421650   0.000000
     46         41.182057   0.000000
     47         41.310060   0.000000
     48         41.781963   0.000000
 
  0.3750000E+00  0.1250000E+00  0.0000000E+00  0.4687500E-01
      1         -1.719947   1.000000
      2          0.506446   1.000000
      3          4.815433   1.000000
      4          6.383368   1.000000
      5          6.889200   1.000000
      6          7.862540   1.000000
      7          8.468275   0.000000
      8          9.182787   0.000000
      9         10.176014   0.000000
     10         11.499559   0.000000
     11         12.649261   0.000000
     12         13.370927   0.000000
     13         13.952140   0.000000
     14         14.728725   0.000000
     15         15.800149   0.000000
     16         16.836893   0.000000
     17         18.857238   0.000000
     18         19.249044   0.000000
     19         19.527192   0.000000
     20         19.743874   0.000000
     21         20.976708   0.000000
     22         21.024317   0.000000
     23         22.696711   0.000000
     24         23.954307   0.000000
     25         25.826895   0.000000
     26         26.823175   0.000000
     27         27.074384   0.000000
     28         27.131699   0.000000
     29         28.238981   0.000000
     30         28.333384   0.000000
     31         28.946579   0.000000
     32         29.606455   0.000000
     33         31.612727   0.000000
     34         31.741408   0.000000
     35         31.764572   0.000000
     36         32.424856   0.000000
     37         33.964690   0.000000
     38         34.453178   0.000000
     39         34.687334   0.000000
     40         34.922078   0.000000
     41         36.577396   0.000000
     42         36.776162   0.000000
     43         37.837977   0.000000
     44         38.366487   0.000000
     45         39.595729   0.000000
     46         39.771606   0.000000
     47         40.422762   0.000000
     48         40.967540   0.000000
 
  0.5000000E+00  0.1250000E+00  0.0000000E+00  0.2343750E-01
      1         -0.741280   1.000000
      2         -0.741280   1.000000
      3          5.742939   1.000000
      4          5.742939   1.000000
      5          7.294470   1.000000
      6          7.294470   1.000000
      7          8.711986   0.000000
      8          8.711986   0.000000
      9         10.388076   0.000000
     10         10.388076   0.000000
     11         13.561507   0.000000
     12         13.561507   0.000000
     13         14.691312   0.000000
     14         14.691312   0.000000
     15         16.436692   0.000000
     16         16.436692   0.000000
     17         17.729628   0.000000
     18         17.729628   0.000000
     19         20.037733   0.000000
     20         20.037733   0.000000
     21         22.575968   0.000000
     22         22.575968   0.000000
     23         23.984564   0.000000
     24         23.984564   0.000000
     25         25.153640   0.000000
     26         25.153640   0.000000
     27         27.230515   0.000000
     28         27.230515   0.000000
     29         27.817908   0.000000
     30         27.817908   0.000000
     31         29.475244   0.000000
     32         29.475244   0.000000
     33         30.469107   0.000000
     34         30.469107   0.000000
     35         33.069444   0.000000
     36         33.069444   0.000000
     37         34.138736   0.000000
     38         34.138736   0.000000
     39         34.253526   0.000000
     40         34.253526   0.000000
     41         36.705171   0.000000
     42         36.705171   0.000000
     43         38.066313   0.000000
     44         38.066313   0.000000
     45         38.449275   0.000000
     46         38.449275   0.000000
     47         40.918869   0.000000
     48         40.918870   0.000000
 
  0.2500000E+00  0.2500000E+00  0.0000000E+00  0.2343750E-01
      1         -2.000866   1.000000
      2          2.421253   1.000000
      3          2.421253   1.000000
      4          6.123162   1.000000
      5          6.649749   1.000000
      6          7.615945   1.000000
      7         10.296776   0.000000
      8         10.296776   0.000000
      9         11.009231   0.000000
     10         11.009231   0.000000
     11         11.916893   0.000000
     12         11.916893   0.000000
     13         14.465442   0.000000
     14         14.580280   0.000000
     15         15.717063   0.000000
     16         16.229692   0.000000
     17         18.674933   0.000000
     18         18.674933   0.000000
     19         20.702473   0.000000
     20         20.702473   0.000000
     21         21.770810   0.000000
     22         22.081396   0.000000
     23         23.402541   0.000000
     24         23.721930   0.000000
     25         23.982224   0.000000
     26         24.164905   0.000000
     27         25.732337   0.000000
     28         27.371854   0.000000
     29         27.371854   0.000000
     30         29.867216   0.000000
     31         30.240720   0.000000
     32         31.108707   0.000000
     33         31.210461   0.000000
     34         31.221343   0.000000
     35         32.986282   0.000000
     36         32.986282   0.000000
     37         33.045614   0.000000
     38         33.045614   0.000000
     39         34.391704   0.000000
     40         35.992325   0.000000
     41         36.290897   0.000000
     42         36.290897   0.000000
     43         37.668370   0.000000
     44         38.568666   0.000000
     45         38.568666   0.000000
     46         39.725865   0.000000
     47         40.254021   0.000000
     48         40.254021   0.000000
 
  0.3750000E+00  0.2500000E+00  0.0000000E+00  0.4687500E-01
      1         -1.299641   1.000000
      2          0.920184   1.000000
      3          3.100489   1.000000
      4          5.245121   1.000000
      5          6.773362   1.000000
      6          8.241811   0.004616
      7          8.859701   0.000000
      8         10.302498   0.000000
      9         10.949809   0.000000
     10         11.895101   0.000000
     11         12.351610   0.000000
     12         13.036091   0.000000
     13         13.831038   0.000000
     14         13.929302   0.000000
     15         14.401537   0.000000
     16         18.277318   0.000000
     17         19.307733   0.000000
     18         19.802182   0.000000
     19         21.207380   0.000000
     20         21.249398   0.000000
     21         21.397689   0.000000
     22         22.727675   0.000000
     23         22.906417   0.000000
     24         24.240230   0.000000
     25         24.415049   0.000000
     26         25.764471   0.000000
     27         25.997360   0.000000
     28         26.064442   0.000000
     29         27.434842   0.000000
     30         27.458551   0.000000
     31         28.271088   0.000000
     32         30.896483   0.000000
     33         31.147961   0.000000
     34         31.312824   0.000000
     35         31.933681   0.000000
     36         32.232362   0.000000
     37         32.546695   0.000000
     38         32.913239   0.000000
     39         34.139369   0.000000
     40         35.176678   0.000000
     41         35.724116   0.000000
     42         36.149482   0.000000
     43         36.158192   0.000000
     44         38.336831   0.000000
     45         39.451856   0.000000
     46         39.481012   0.000000
     47         39.562091   0.000000
     48         40.650434   0.000000
 
  0.5000000E+00  0.2500000E+00  0.0000000E+00  0.2343750E-01
      1         -0.323862   1.000000
      2         -0.323862   1.000000
      3          4.045139   1.000000
      4          4.045139   1.000000
      5          7.685466   1.000000
      6          7.685466   1.000000
      7          9.165780   0.000000
      8          9.165780   0.000000
      9         11.863168   0.000000
     10         11.863168   0.000000
     11         12.747357   0.000000
     12         12.747357   0.000000
     13         13.276041   0.000000
     14         13.276041   0.000000
     15         16.804809   0.000000
     16         16.804809   0.000000
     17         20.174288   0.000000
     18         20.174288   0.000000
     19         21.087725   0.000000
     20         21.087725   0.000000
     21         21.957145   0.000000
     22         21.957145   0.000000
     23         24.340692   0.000000
     24         24.340692   0.000000
     25         24.996552   0.000000
     26         24.996552   0.000000
     27         25.596950   0.000000
     28         25.596950   0.000000
     29         28.342539   0.000000
     30         28.342539   0.000000
     31         28.843930   0.000000
     32         28.843930   0.000000
     33         29.907763   0.000000
     34         29.907763   0.000000
     35         31.909293   0.000000
     36         31.909293   0.000000
     37         32.920803   0.000000
     38         32.920803   0.000000
     39         34.393208   0.000000
     40         34.393208   0.000000
     41         35.272720   0.000000
     42         35.272720   0.000000
     43         38.686554   0.000000
     44         38.686554   0.000000
     45         38.784605   0.000000
     46         38.784605   0.000000
     47         39.809659   0.000000
     48         39.809659   0.000000
 
  0.3750000E+00  0.3750000E+00  0.0000000E+00  0.2343750E-01
      1         -0.601852   1.000000
      2          1.607125   1.000000
      3          1.607125   1.000000
      4          3.781003   1.000000
      5          7.424324   1.000000
      6          8.913249   0.000000
      7          9.512052   0.000000
      8          9.512052   0.000000
      9         11.007785   0.000000
     10         11.007785   0.000000
     11         11.600663   0.000000
     12         13.067621   0.000000
     13         14.532285   0.000000
     14         14.532285   0.000000
     15         15.797126   0.000000
     16         17.625297   0.000000
     17         19.676358   0.000000
     18         21.704543   0.000000
     19         22.007516   0.000000
     20         22.007516   0.000000
     21         22.642140   0.000000
     22         22.642140   0.000000
     23         23.133282   0.000000
     24         23.844413   0.000000
     25         23.844413   0.000000
     26         24.213156   0.000000
     27         25.167868   0.000000
     28         27.423722   0.000000
     29         27.497308   0.000000
     30         27.593080   0.000000
     31         28.085599   0.000000
     32         28.825425   0.000000
     33         29.960234   0.000000
     34         29.960234   0.000000
     35         31.210959   0.000000
     36         31.210959   0.000000
     37         32.601605   0.000000
     38         33.496716   0.000000
     39         33.888509   0.000000
     40         33.890003   0.000000
     41         33.890003   0.000000
     42         36.378826   0.000000
     43         36.378826   0.000000
     44         38.091899   0.000000
     45         38.512656   0.000000
     46         39.301003   0.000000
     47         39.301003   0.000000
     48         39.459996   0.000000
 
  0.5000000E+00  0.3750000E+00  0.0000000E+00  0.2343750E-01
      1          0.369178   1.000000
      2          0.369178   1.000000
      3          2.563194   1.000000
      4          2.563194   1.000000
      5          8.337395   0.000000
      6          8.337395   0.000000
      7          9.843299   0.000000
      8          9.843299   0.000000
      9         10.425828   0.000000
     10         10.425828   0.000000
     11         11.925370   0.000000
     12         11.925370   0.000000
     13         15.344625   0.000000
     14         15.344625   0.000000
     15         17.347672   0.000000
     16         17.347672   0.000000
     17         19.839714   0.000000
     18         19.839714   0.000000
     19         21.789799   0.000000
     20         21.789799   0.000000
     21         22.791785   0.000000
     22         22.791785   0.000000
     23         24.204915   0.000000
     24         24.204915   0.000000
     25         24.880486   0.000000
     26         24.880486   0.000000
     27         25.912482   0.000000
     28         25.912482   0.000000
     29         27.206690   0.000000
     30         27.206690   0.000000
     31         29.078059   0.000000
     32         29.078059   0.000000
     33         29.194827   0.000000
     34         29.194827   0.000000
     35         29.846382   0.000000
     36         29.846382   0.000000
     37         33.294484   0.000000
     38         33.294484   0.000000
     39         33.378584   0.000000
     40         33.378584   0.000000
     41         34.971575   0.000000
     42         34.971575   0.000000
     43         37.057638   0.000000
     44         37.057638   0.000000
     45         38.825509   0.000000
     46         38.825509   0.000000
     47         40.637845   0.000000
     48         40.637845   0.000000
 
  0.5000000E+00  0.5000000E+00  0.0000000E+00  0.5859375E-02
      1          1.333622   1.000000
      2          1.333622   1.000000
      3          1.333622   1.000000
      4          1.333622   1.000000
      5          9.250520   0.000000
      6          9.250520   0.000000
      7          9.250520   0.000000
      8          9.250520   0.000000
      9         10.767754   0.000000
     10         10.767754   0.000000
     11         10.767754   0.000000
     12         10.767754   0.000000
     13         17.502064   0.000000
     14         17.502064   0.000000
     15         17.502064   0.000000
     16         17.502064   0.000000
     17         19.471635   0.000000
     18         19.471635   0.000000
     19         19.471635   0.000000
     20         19.471635   0.000000
     21         25.030061   0.000000
     22         25.030061   0.000000
     23         25.030061   0.000000
     24         25.030061   0.000000
     25         25.684353   0.000000
     26         25.684353   0.000000
     27         25.684353   0.000000
     28         25.684353   0.000000
     29         26.788364   0.000000
     30         26.788364   0.000000
     31         26.788364   0.000000
     32         26.788364   0.000000
     33         29.206974   0.000000
     34         29.206974   0.000000
     35         29.206974   0.000000
     36         29.206974   0.000000
     37         33.360631   0.000000
     38         33.360631   0.000000
     39         33.360631   0.000000
     40         33.360631   0.000000
     41         35.849746   0.000000
     42         35.849746   0.000000
     43         35.849746   0.000000
     44         35.849746   0.000000
     45         38.974895   0.000000
     46         38.974895   0.000000
     47         38.974895   0.000000
     48         38.974895   0.000000
 
  0.1250000E+00  0.1250000E+00  0.1250000E+00  0.1562500E-01
      1         -2.705620   1.000000
      2          3.879448   1.000000
      3          3.879448   1.000000
      4          3.879448   1.000000
      5          8.385176   0.000000
      6          8.385176   0.000000
      7          8.385176   0.000000
      8         10.225477   0.000000
      9         10.225477   0.000000
     10         10.225477   0.000000
     11         13.971757   0.000000
     12         13.971757   0.000000
     13         13.971757   0.000000
     14         15.342564   0.000000
     15         15.342564   0.000000
     16         15.342564   0.000000
     17         16.337950   0.000000
     18         19.512938   0.000000
     19         19.512938   0.000000
     20         19.512938   0.000000
     21         19.710254   0.000000
     22         19.710254   0.000000
     23         22.745533   0.000000
     24         23.693025   0.000000
     25         23.693025   0.000000
     26         25.723484   0.000000
     27         25.723484   0.000000
     28         27.923782   0.000000
     29         29.022767   0.000000
     30         31.095960   0.000000
     31         31.095960   0.000000
     32         31.095960   0.000000
     33         33.173298   0.000000
     34         33.173298   0.000000
     35         33.173298   0.000000
     36         34.051621   0.000000
     37         34.051621   0.000000
     38         34.051621   0.000000
     39         34.663716   0.000000
     40         35.348334   0.000000
     41         35.348334   0.000000
     42         38.361712   0.000000
     43         38.361712   0.000000
     44         38.361712   0.000000
     45         41.503448   0.000000
     46         41.503567   0.000000
     47         41.505803   0.000000
     48         41.532461   0.000000
 
  0.2500000E+00  0.1250000E+00  0.1250000E+00  0.4687500E-01
      1         -2.282357   1.000000
      2          2.148699   1.000000
      3          4.281154   1.000000
      4          4.281154   1.000000
      5          8.426399   0.000000
      6          8.426399   0.000000
      7          8.921297   0.000000
      8          8.921297   0.000000