 vasp.6.4.3 19Mar24 (build Jun 26 2024 13:02:28) complex                        
  
 executed on             LinuxIFC date 2025.08.08  19:02:37
 running   48 mpi-ranks, on    4 nodes
 distrk:  each k-point on   48 cores,    1 groups
 distr:  one band on NCORE=   1 cores,   48 groups


--------------------------------------------------------------------------------------------------------


 INCAR:
   ENCUT = 312.39000000000004
   IBRION = -1
   ISMEAR = 0
   ISYM = 2
   LCHARG = True
   LWAVE = True
   SIGMA = 0.05
   SYSTEM = Al

 POTCAR:  PAW_PBE Al 04Jan2001                    
 -----------------------------------------------------------------------------
|                                                                             |
|           W    W    AA    RRRRR   N    N  II  N    N   GGGG   !!!           |
|           W    W   A  A   R    R  NN   N  II  NN   N  G    G  !!!           |
|           W    W  A    A  R    R  N N  N  II  N N  N  G       !!!           |
|           W WW W  AAAAAA  RRRRR   N  N N  II  N  N N  G  GGG   !            |
|           WW  WW  A    A  R   R   N   NN  II  N   NN  G    G                |
|           W    W  A    A  R    R  N    N  II  N    N   GGGG   !!!           |
|                                                                             |
|     For optimal performance we recommend to set                             |
|       NCORE = 2 up to number-of-cores-per-socket                            |
|     NCORE specifies how many cores store one orbital (NPAR=cpu/NCORE).      |
|     This setting can greatly improve the performance of VASP for DFT.       |
|     The default, NCORE=1 might be grossly inefficient on modern             |
|     multi-core architectures or massively parallel machines. Do your        |
|     own testing! More info at https://www.vasp.at/wiki/index.php/NCORE      |
|     Unfortunately you need to use the default for GW and RPA                |
|     calculations (for HF NCORE is supported but not extensively tested      |
|     yet).                                                                   |
|                                                                             |
 -----------------------------------------------------------------------------

 POTCAR:  PAW_PBE Al 04Jan2001                    
   VRHFIN =Al: s2p1                                                                                 
   LEXCH  = PE                                                                                      
   EATOM  =    53.5387 eV,    3.9350 Ry                                                             
                                                                                                    
   TITEL  = PAW_PBE Al 04Jan2001                                                                    
   LULTRA =        F    use ultrasoft PP ?                                                          
   IUNSCR =        1    unscreen: 0-lin 1-nonlin 2-no                                               
   RPACOR =    1.500    partial core radius                                                         
   POMASS =   26.981; ZVAL   =    3.000    mass and valenz                                          
   RCORE  =    1.900    outmost cutoff radius                                                       
   RWIGS  =    2.650; RWIGS  =    1.402    wigner-seitz radius (au A)                               
   ENMAX  =  240.300; ENMIN  =  180.225 eV                                                          
   ICORE  =        2    local potential                                                             
   LCOR   =        T    correct aug charges                                                         
   LPAW   =        T    paw PP                                                                      
   EAUG   =  291.052                                                                                
   DEXC   =    0.000                                                                                
   RMAX   =    1.939    core radius for proj-oper                                                   
   RAUG   =    1.300    factor for augmentation sphere                                              
   RDEP   =    1.966    radius for radial grids                                                     
   RDEPT  =    1.856    core radius for aug-charge                                                  
                                                                                                    
   Atomic configuration                                                                             
    6 entries                                                                                       
     n  l   j            E        occ.                                                              
     1  0  0.50     -1511.1048   2.0000                                                             
     2  0  0.50      -108.1629   2.0000                                                             
     2  1  1.50       -69.6402   6.0000                                                             
     3  0  0.50        -7.7528   2.0000                                                             
     3  1  1.50        -2.7121   1.0000                                                             
     3  2  2.50        -2.7212   0.0000                                                             
   Description                                                                                      
     l       E           TYP  RCUT    TYP  RCUT                                                     
     0     -7.7528455     23  1.900                                                                 
     0     -3.3096929     23  1.900                                                                 
     1     -2.7120682     23  1.900                                                                 
     1     13.6058260     23  1.900                                                                 
     2     -2.7211652      7  1.900                                                                 
  local pseudopotential read in
  partial core-charges read in
  partial kinetic energy density read in
  atomic valenz-charges read in
  non local Contribution for L=           0  read in
    real space projection operators read in
  non local Contribution for L=           0  read in
    real space projection operators read in
  non local Contribution for L=           1  read in
    real space projection operators read in
  non local Contribution for L=           1  read in
    real space projection operators read in
    PAW grid and wavefunctions read in
 
   number of l-projection  operators is LMAX  =           4
   number of lm-projection operators is LMMAX =           8
 
PAW_PBE Al 04Jan2001                    :
 energy of atom  1       EATOM=  -53.5387
 kinetic energy error for atom=    0.0009 (will be added to EATOM!!)
 
 
 POSCAR: Al4
  positions in direct lattice
  No initial velocities read in


 exchange-correlation table for PE
   RHO(1)=    0.500       N(1)  =     2000
   RHO(2)=  100.500       N(2)  =     4000
 


--------------------------------------------------------------------------------------------------------


 ion  position               nearest neighbor table
   1  0.000  0.000  0.000-   4 2.86   4 2.86   2 2.86   3 2.86   2 2.86   2 2.86   2 2.86   3 2.86
                             3 2.86   3 2.86   4 2.86   4 2.86
   2  0.000  0.500  0.500-   3 2.86   3 2.86   1 2.86   4 2.86   1 2.86   1 2.86   1 2.86   4 2.86
                             4 2.86   4 2.86   3 2.86   3 2.86
   3  0.500  0.000  0.500-   2 2.86   2 2.86   1 2.86   4 2.86   1 2.86   4 2.86   4 2.86   1 2.86
                             4 2.86   1 2.86   2 2.86   2 2.86
   4  0.500  0.500  0.000-   1 2.86   1 2.86   2 2.86   3 2.86   2 2.86   3 2.86   3 2.86   3 2.86
                             2 2.86   2 2.86   1 2.86   1 2.86
 
  LATTYP: Found a simple cubic cell.
 ALAT       =     4.0402100000
  
  Lattice vectors:
  
 A1 = (   4.0402100000,   0.0000000000,   0.0000000000)
 A2 = (   0.0000000000,   4.0402100000,   0.0000000000)
 A3 = (   0.0000000000,   0.0000000000,   4.0402100000)


Analysis of symmetry for initial positions (statically):
=====================================================================
 Subroutine PRICEL returns following result:
 
  LATTYP: Found a face centered cubic cell.
 ALAT       =     4.0402100000
  
  Lattice vectors:
  
 A1 = (   2.0201050000,  -2.0201050000,   0.0000000000)
 A2 = (   2.0201050000,   0.0000000000,   2.0201050000)
 A3 = (   0.0000000000,  -2.0201050000,   2.0201050000)
 
   4 primitive cells build up your supercell.
 

 Routine SETGRP: Setting up the symmetry group for a 
 simple cubic supercell.


 Subroutine GETGRP returns: Found 48 space group operations
 (whereof 48 operations were pure point group operations)
 out of a pool of 48 trial point group operations.


The static configuration has the point symmetry O_h .


Analysis of symmetry for dynamics (positions and initial velocities):
=====================================================================
 Subroutine PRICEL returns following result:
 
  LATTYP: Found a face centered cubic cell.
 ALAT       =     4.0402100000
  
  Lattice vectors:
  
 A1 = (   2.0201050000,  -2.0201050000,   0.0000000000)
 A2 = (   2.0201050000,   0.0000000000,   2.0201050000)
 A3 = (   0.0000000000,  -2.0201050000,   2.0201050000)
 
   4 primitive cells build up your supercell.
 

 Routine SETGRP: Setting up the symmetry group for a 
 simple cubic supercell.


 Subroutine GETGRP returns: Found 48 space group operations
 (whereof 48 operations were pure point group operations)
 out of a pool of 48 trial point group operations.


The dynamic configuration has the point symmetry O_h .


 Subroutine INISYM returns: Found 48 space group operations
 (whereof 48 operations are pure point group operations),
 and found     4 'primitive' translations


----------------------------------------------------------------------------------------

                                     Primitive cell                                     

  volume of cell :      16.4874

  direct lattice vectors                    reciprocal lattice vectors
     2.020105000 -2.020105000  0.000000000     0.247511887 -0.247511887 -0.247511887
     2.020105000  0.000000000  2.020105000     0.247511887  0.247511887  0.247511887
     0.000000000 -2.020105000  2.020105000    -0.247511887 -0.247511887  0.247511887

  length of vectors
     2.856859888  2.856859888  2.856859888     0.428703163  0.428703163  0.428703163

  position of ions in fractional coordinates (direct lattice)
     0.000000000  0.000000000  0.000000000

  ion indices of the primitive-cell ions
   primitive index   ion index
                 1           1

----------------------------------------------------------------------------------------

 
 
 KPOINTS: Automatic kpoint scheme                 

Automatic generation of k-mesh.
 Grid dimensions read from file:
 generate k-points for:    8    8    8

 Generating k-lattice:

  Cartesian coordinates                     Fractional coordinates (reciprocal lattice)
     0.030938986 -0.000000000  0.000000000     0.125000000  0.000000000  0.000000000
     0.000000000  0.030938986  0.000000000     0.000000000  0.125000000  0.000000000
    -0.000000000 -0.000000000  0.030938986    -0.000000000 -0.000000000  0.125000000

  Length of vectors
     0.030938986  0.030938986  0.030938986

  Shift w.r.t. Gamma in fractional coordinates (k-lattice)
     0.000000000  0.000000000  0.000000000

 
 Subroutine IBZKPT returns following result:
 ===========================================
 
 Found     35 irreducible k-points:
 
 Following reciprocal coordinates:
            Coordinates               Weight
  0.000000  0.000000  0.000000      1.000000
  0.125000  0.000000  0.000000      6.000000
  0.250000  0.000000  0.000000      6.000000
  0.375000  0.000000  0.000000      6.000000
  0.500000  0.000000  0.000000      3.000000
  0.125000  0.125000  0.000000     12.000000
  0.250000  0.125000  0.000000     24.000000
  0.375000  0.125000  0.000000     24.000000
  0.500000  0.125000  0.000000     12.000000
  0.250000  0.250000  0.000000     12.000000
  0.375000  0.250000  0.000000     24.000000
  0.500000  0.250000  0.000000     12.000000
  0.375000  0.375000  0.000000     12.000000
  0.500000  0.375000  0.000000     12.000000
  0.500000  0.500000  0.000000      3.000000
  0.125000  0.125000  0.125000      8.000000
  0.250000  0.125000  0.125000     24.000000
  0.375000  0.125000  0.125000     24.000000
  0.500000  0.125000  0.125000     12.000000
  0.250000  0.250000  0.125000     24.000000
  0.375000  0.250000  0.125000     48.000000
  0.500000  0.250000  0.125000     24.000000
  0.375000  0.375000  0.125000     24.000000
  0.500000  0.375000  0.125000     24.000000
  0.500000  0.500000  0.125000      6.000000
  0.250000  0.250000  0.250000      8.000000
  0.375000  0.250000  0.250000     24.000000
  0.500000  0.250000  0.250000     12.000000
  0.375000  0.375000  0.250000     24.000000
  0.500000  0.375000  0.250000     24.000000
  0.500000  0.500000  0.250000      6.000000
  0.375000  0.375000  0.375000      8.000000
  0.500000  0.375000  0.375000     12.000000
  0.500000  0.500000  0.375000      6.000000
  0.500000  0.500000  0.500000      1.000000
 
 Following cartesian coordinates:
            Coordinates               Weight
  0.000000  0.000000  0.000000      1.000000
  0.030939 -0.000000  0.000000      6.000000
  0.061878 -0.000000  0.000000      6.000000
  0.092817 -0.000000  0.000000      6.000000
  0.123756 -0.000000  0.000000      3.000000
  0.030939  0.030939  0.000000     12.000000
  0.061878  0.030939  0.000000     24.000000
  0.092817  0.030939  0.000000     24.000000
  0.123756  0.030939  0.000000     12.000000
  0.061878  0.061878  0.000000     12.000000
  0.092817  0.061878  0.000000     24.000000
  0.123756  0.061878  0.000000     12.000000
  0.092817  0.092817  0.000000     12.000000
  0.123756  0.092817  0.000000     12.000000
  0.123756  0.123756  0.000000      3.000000
  0.030939  0.030939  0.030939      8.000000
  0.061878  0.030939  0.030939     24.000000
  0.092817  0.030939  0.030939     24.000000
  0.123756  0.030939  0.030939     12.000000
  0.061878  0.061878  0.030939     24.000000
  0.092817  0.061878  0.030939     48.000000
  0.123756  0.061878  0.030939     24.000000
  0.092817  0.092817  0.030939     24.000000
  0.123756  0.092817  0.030939     24.000000
  0.123756  0.123756  0.030939      6.000000
  0.061878  0.061878  0.061878      8.000000
  0.092817  0.061878  0.061878     24.000000
  0.123756  0.061878  0.061878     12.000000
  0.092817  0.092817  0.061878     24.000000
  0.123756  0.092817  0.061878     24.000000
  0.123756  0.123756  0.061878      6.000000
  0.092817  0.092817  0.092817      8.000000
  0.123756  0.092817  0.092817     12.000000
  0.123756  0.123756  0.092817      6.000000
  0.123756  0.123756  0.123756      1.000000
 
 
 Subroutine IBZKPT_HF returns following result:
 ==============================================
 
 Found    512 k-points in 1st BZ
 the following    512 k-points will be used (e.g. in the exchange kernel)
 Following reciprocal coordinates:   # in IRBZ
  0.000000  0.000000  0.000000    0.00195312   1 t-inv F
  0.125000  0.000000  0.000000    0.00195312   2 t-inv F
  0.250000  0.000000  0.000000    0.00195312   3 t-inv F
  0.375000  0.000000  0.000000    0.00195312   4 t-inv F
  0.500000  0.000000  0.000000    0.00195312   5 t-inv F
  0.125000  0.125000  0.000000    0.00195312   6 t-inv F
  0.250000  0.125000  0.000000    0.00195312   7 t-inv F
  0.375000  0.125000  0.000000    0.00195312   8 t-inv F
  0.500000  0.125000  0.000000    0.00195312   9 t-inv F
  0.250000  0.250000  0.000000    0.00195312  10 t-inv F
  0.375000  0.250000  0.000000    0.00195312  11 t-inv F
  0.500000  0.250000  0.000000    0.00195312  12 t-inv F
  0.375000  0.375000  0.000000    0.00195312  13 t-inv F
  0.500000  0.375000  0.000000    0.00195312  14 t-inv F
  0.500000  0.500000  0.000000    0.00195312  15 t-inv F
  0.125000  0.125000  0.125000    0.00195312  16 t-inv F
  0.250000  0.125000  0.125000    0.00195312  17 t-inv F
  0.375000  0.125000  0.125000    0.00195312  18 t-inv F
  0.500000  0.125000  0.125000    0.00195312  19 t-inv F
  0.250000  0.250000  0.125000    0.00195312  20 t-inv F
  0.375000  0.250000  0.125000    0.00195312  21 t-inv F
  0.500000  0.250000  0.125000    0.00195312  22 t-inv F
  0.375000  0.375000  0.125000    0.00195312  23 t-inv F
  0.500000  0.375000  0.125000    0.00195312  24 t-inv F
  0.500000  0.500000  0.125000    0.00195312  25 t-inv F
  0.250000  0.250000  0.250000    0.00195312  26 t-inv F
  0.375000  0.250000  0.250000    0.00195312  27 t-inv F
  0.500000  0.250000  0.250000    0.00195312  28 t-inv F
  0.375000  0.375000  0.250000    0.00195312  29 t-inv F
  0.500000  0.375000  0.250000    0.00195312  30 t-inv F
  0.500000  0.500000  0.250000    0.00195312  31 t-inv F
  0.375000  0.375000  0.375000    0.00195312  32 t-inv F
  0.500000  0.375000  0.375000    0.00195312  33 t-inv F
  0.500000  0.500000  0.375000    0.00195312  34 t-inv F
  0.500000  0.500000  0.500000    0.00195312  35 t-inv F
 -0.125000 -0.000000  0.000000    0.00195312   2 t-inv F
  0.000000  0.125000  0.000000    0.00195312   2 t-inv F
  0.000000 -0.125000 -0.000000    0.00195312   2 t-inv F
  0.000000  0.000000  0.125000    0.00195312   2 t-inv F
 -0.000000  0.000000 -0.125000    0.00195312   2 t-inv F
 -0.250000 -0.000000  0.000000    0.00195312   3 t-inv F
  0.000000  0.250000  0.000000    0.00195312   3 t-inv F
  0.000000 -0.250000 -0.000000    0.00195312   3 t-inv F
  0.000000  0.000000  0.250000    0.00195312   3 t-inv F
 -0.000000  0.000000 -0.250000    0.00195312   3 t-inv F
 -0.375000 -0.000000  0.000000    0.00195312   4 t-inv F
  0.000000  0.375000  0.000000    0.00195312   4 t-inv F
  0.000000 -0.375000 -0.000000    0.00195312   4 t-inv F
  0.000000  0.000000  0.375000    0.00195312   4 t-inv F
 -0.000000  0.000000 -0.375000    0.00195312   4 t-inv F
  0.000000  0.500000  0.000000    0.00195312   5 t-inv F
  0.000000  0.000000  0.500000    0.00195312   5 t-inv F
 -0.125000 -0.125000  0.000000    0.00195312   6 t-inv F
  0.000000  0.125000  0.125000    0.00195312   6 t-inv F
  0.000000 -0.125000 -0.125000    0.00195312   6 t-inv F
  0.125000  0.000000  0.125000    0.00195312   6 t-inv F
 -0.125000  0.000000 -0.125000    0.00195312   6 t-inv F
 -0.125000  0.125000  0.000000    0.00195312   6 t-inv F
  0.125000 -0.125000  0.000000    0.00195312   6 t-inv F
 -0.125000  0.000000  0.125000    0.00195312   6 t-inv F
  0.125000  0.000000 -0.125000    0.00195312   6 t-inv F
  0.000000 -0.125000  0.125000    0.00195312   6 t-inv F
  0.000000  0.125000 -0.125000    0.00195312   6 t-inv F
 -0.250000 -0.125000  0.000000    0.00195312   7 t-inv F
  0.000000  0.250000  0.125000    0.00195312   7 t-inv F
  0.000000 -0.250000 -0.125000    0.00195312   7 t-inv F
  0.125000  0.000000  0.250000    0.00195312   7 t-inv F
 -0.125000  0.000000 -0.250000    0.00195312   7 t-inv F
 -0.125000  0.250000  0.000000    0.00195312   7 t-inv F
  0.125000 -0.250000  0.000000    0.00195312   7 t-inv F
 -0.250000  0.000000  0.125000    0.00195312   7 t-inv F
  0.250000  0.000000 -0.125000    0.00195312   7 t-inv F
  0.000000  0.125000  0.250000    0.00195312   7 t-inv F
  0.000000 -0.125000 -0.250000    0.00195312   7 t-inv F
  0.000000 -0.250000  0.125000    0.00195312   7 t-inv F
  0.000000  0.250000 -0.125000    0.00195312   7 t-inv F
 -0.125000  0.000000  0.250000    0.00195312   7 t-inv F
  0.125000  0.000000 -0.250000    0.00195312   7 t-inv F
  0.250000  0.000000  0.125000    0.00195312   7 t-inv F
 -0.250000  0.000000 -0.125000    0.00195312   7 t-inv F
  0.000000 -0.125000  0.250000    0.00195312   7 t-inv F
  0.000000  0.125000 -0.250000    0.00195312   7 t-inv F
  0.250000 -0.125000  0.000000    0.00195312   7 t-inv F
 -0.250000  0.125000  0.000000    0.00195312   7 t-inv F
  0.125000  0.250000  0.000000    0.00195312   7 t-inv F
 -0.125000 -0.250000  0.000000    0.00195312   7 t-inv F
 -0.375000 -0.125000  0.000000    0.00195312   8 t-inv F
  0.000000  0.375000  0.125000    0.00195312   8 t-inv F
  0.000000 -0.375000 -0.125000    0.00195312   8 t-inv F
  0.125000  0.000000  0.375000    0.00195312   8 t-inv F
 -0.125000  0.000000 -0.375000    0.00195312   8 t-inv F
 -0.125000  0.375000  0.000000    0.00195312   8 t-inv F
  0.125000 -0.375000  0.000000    0.00195312   8 t-inv F
 -0.375000  0.000000  0.125000    0.00195312   8 t-inv F
  0.375000  0.000000 -0.125000    0.00195312   8 t-inv F
  0.000000  0.125000  0.375000    0.00195312   8 t-inv F
  0.000000 -0.125000 -0.375000    0.00195312   8 t-inv F
  0.000000 -0.375000  0.125000    0.00195312   8 t-inv F
  0.000000  0.375000 -0.125000    0.00195312   8 t-inv F
 -0.125000  0.000000  0.375000    0.00195312   8 t-inv F
  0.125000  0.000000 -0.375000    0.00195312   8 t-inv F
  0.375000  0.000000  0.125000    0.00195312   8 t-inv F
 -0.375000  0.000000 -0.125000    0.00195312   8 t-inv F
  0.000000 -0.125000  0.375000    0.00195312   8 t-inv F
  0.000000  0.125000 -0.375000    0.00195312   8 t-inv F
  0.375000 -0.125000  0.000000    0.00195312   8 t-inv F
 -0.375000  0.125000  0.000000    0.00195312   8 t-inv F
  0.125000  0.375000  0.000000    0.00195312   8 t-inv F
 -0.125000 -0.375000  0.000000    0.00195312   8 t-inv F
 -0.500000 -0.125000  0.000000    0.00195312   9 t-inv F
  0.000000  0.500000  0.125000    0.00195312   9 t-inv F
  0.000000 -0.500000 -0.125000    0.00195312   9 t-inv F
  0.125000  0.000000  0.500000    0.00195312   9 t-inv F
 -0.125000  0.000000 -0.500000    0.00195312   9 t-inv F
 -0.125000  0.500000  0.000000    0.00195312   9 t-inv F
  0.125000 -0.500000  0.000000    0.00195312   9 t-inv F
 -0.500000  0.000000  0.125000    0.00195312   9 t-inv F
  0.500000  0.000000 -0.125000    0.00195312   9 t-inv F
  0.000000  0.125000  0.500000    0.00195312   9 t-inv F
  0.000000 -0.125000 -0.500000    0.00195312   9 t-inv F
 -0.250000 -0.250000  0.000000    0.00195312  10 t-inv F
  0.000000  0.250000  0.250000    0.00195312  10 t-inv F
  0.000000 -0.250000 -0.250000    0.00195312  10 t-inv F
  0.250000  0.000000  0.250000    0.00195312  10 t-inv F
 -0.250000  0.000000 -0.250000    0.00195312  10 t-inv F
 -0.250000  0.250000  0.000000    0.00195312  10 t-inv F
  0.250000 -0.250000  0.000000    0.00195312  10 t-inv F
 -0.250000  0.000000  0.250000    0.00195312  10 t-inv F
  0.250000  0.000000 -0.250000    0.00195312  10 t-inv F
  0.000000 -0.250000  0.250000    0.00195312  10 t-inv F
  0.000000  0.250000 -0.250000    0.00195312  10 t-inv F
 -0.375000 -0.250000  0.000000    0.00195312  11 t-inv F
  0.000000  0.375000  0.250000    0.00195312  11 t-inv F
  0.000000 -0.375000 -0.250000    0.00195312  11 t-inv F
  0.250000  0.000000  0.375000    0.00195312  11 t-inv F
 -0.250000  0.000000 -0.375000    0.00195312  11 t-inv F
 -0.250000  0.375000  0.000000    0.00195312  11 t-inv F
  0.250000 -0.375000  0.000000    0.00195312  11 t-inv F
 -0.375000  0.000000  0.250000    0.00195312  11 t-inv F
  0.375000  0.000000 -0.250000    0.00195312  11 t-inv F
  0.000000  0.250000  0.375000    0.00195312  11 t-inv F
  0.000000 -0.250000 -0.375000    0.00195312  11 t-inv F
  0.000000 -0.375000  0.250000    0.00195312  11 t-inv F
  0.000000  0.375000 -0.250000    0.00195312  11 t-inv F
 -0.250000  0.000000  0.375000    0.00195312  11 t-inv F
  0.250000  0.000000 -0.375000    0.00195312  11 t-inv F
  0.375000  0.000000  0.250000    0.00195312  11 t-inv F
 -0.375000  0.000000 -0.250000    0.00195312  11 t-inv F
  0.000000 -0.250000  0.375000    0.00195312  11 t-inv F
  0.000000  0.250000 -0.375000    0.00195312  11 t-inv F
  0.375000 -0.250000  0.000000    0.00195312  11 t-inv F
 -0.375000  0.250000  0.000000    0.00195312  11 t-inv F
  0.250000  0.375000  0.000000    0.00195312  11 t-inv F
 -0.250000 -0.375000  0.000000    0.00195312  11 t-inv F
 -0.500000 -0.250000  0.000000    0.00195312  12 t-inv F
  0.000000  0.500000  0.250000    0.00195312  12 t-inv F
  0.000000 -0.500000 -0.250000    0.00195312  12 t-inv F
  0.250000  0.000000  0.500000    0.00195312  12 t-inv F
 -0.250000  0.000000 -0.500000    0.00195312  12 t-inv F
 -0.250000  0.500000  0.000000    0.00195312  12 t-inv F
  0.250000 -0.500000  0.000000    0.00195312  12 t-inv F
 -0.500000  0.000000  0.250000    0.00195312  12 t-inv F
  0.500000  0.000000 -0.250000    0.00195312  12 t-inv F
  0.000000  0.250000  0.500000    0.00195312  12 t-inv F
  0.000000 -0.250000 -0.500000    0.00195312  12 t-inv F
 -0.375000 -0.375000  0.000000    0.00195312  13 t-inv F
  0.000000  0.375000  0.375000    0.00195312  13 t-inv F
  0.000000 -0.375000 -0.375000    0.00195312  13 t-inv F
  0.375000  0.000000  0.375000    0.00195312  13 t-inv F
 -0.375000  0.000000 -0.375000    0.00195312  13 t-inv F
 -0.375000  0.375000  0.000000    0.00195312  13 t-inv F
  0.375000 -0.375000  0.000000    0.00195312  13 t-inv F
 -0.375000  0.000000  0.375000    0.00195312  13 t-inv F
  0.375000  0.000000 -0.375000    0.00195312  13 t-inv F
  0.000000 -0.375000  0.375000    0.00195312  13 t-inv F
  0.000000  0.375000 -0.375000    0.00195312  13 t-inv F
 -0.500000 -0.375000  0.000000    0.00195312  14 t-inv F
  0.000000  0.500000  0.375000    0.00195312  14 t-inv F
  0.000000 -0.500000 -0.375000    0.00195312  14 t-inv F
  0.375000  0.000000  0.500000    0.00195312  14 t-inv F
 -0.375000  0.000000 -0.500000    0.00195312  14 t-inv F
 -0.375000  0.500000  0.000000    0.00195312  14 t-inv F
  0.375000 -0.500000  0.000000    0.00195312  14 t-inv F
 -0.500000  0.000000  0.375000    0.00195312  14 t-inv F
  0.500000  0.000000 -0.375000    0.00195312  14 t-inv F
  0.000000  0.375000  0.500000    0.00195312  14 t-inv F
  0.000000 -0.375000 -0.500000    0.00195312  14 t-inv F
  0.000000  0.500000  0.500000    0.00195312  15 t-inv F
  0.500000  0.000000  0.500000    0.00195312  15 t-inv F
 -0.125000 -0.125000 -0.125000    0.00195312  16 t-inv F
 -0.125000  0.125000  0.125000    0.00195312  16 t-inv F
  0.125000 -0.125000 -0.125000    0.00195312  16 t-inv F
 -0.125000 -0.125000  0.125000    0.00195312  16 t-inv F
  0.125000  0.125000 -0.125000    0.00195312  16 t-inv F
  0.125000 -0.125000  0.125000    0.00195312  16 t-inv F
 -0.125000  0.125000 -0.125000    0.00195312  16 t-inv F
 -0.250000 -0.125000 -0.125000    0.00195312  17 t-inv F
  0.125000  0.250000  0.125000    0.00195312  17 t-inv F
 -0.125000 -0.250000 -0.125000    0.00195312  17 t-inv F
  0.125000  0.125000  0.250000    0.00195312  17 t-inv F
 -0.125000 -0.125000 -0.250000    0.00195312  17 t-inv F
 -0.125000  0.250000  0.125000    0.00195312  17 t-inv F
  0.125000 -0.250000 -0.125000    0.00195312  17 t-inv F
 -0.250000  0.125000  0.125000    0.00195312  17 t-inv F
  0.250000 -0.125000 -0.125000    0.00195312  17 t-inv F
 -0.125000  0.125000  0.250000    0.00195312  17 t-inv F
  0.125000 -0.125000 -0.250000    0.00195312  17 t-inv F
 -0.250000 -0.125000  0.125000    0.00195312  17 t-inv F
  0.250000  0.125000 -0.125000    0.00195312  17 t-inv F
 -0.125000 -0.250000  0.125000    0.00195312  17 t-inv F
  0.125000  0.250000 -0.125000    0.00195312  17 t-inv F
 -0.125000 -0.125000  0.250000    0.00195312  17 t-inv F
  0.125000  0.125000 -0.250000    0.00195312  17 t-inv F
  0.125000 -0.250000  0.125000    0.00195312  17 t-inv F
 -0.125000  0.250000 -0.125000    0.00195312  17 t-inv F
  0.250000 -0.125000  0.125000    0.00195312  17 t-inv F
 -0.250000  0.125000 -0.125000    0.00195312  17 t-inv F
  0.125000 -0.125000  0.250000    0.00195312  17 t-inv F
 -0.125000  0.125000 -0.250000    0.00195312  17 t-inv F
 -0.375000 -0.125000 -0.125000    0.00195312  18 t-inv F
  0.125000  0.375000  0.125000    0.00195312  18 t-inv F
 -0.125000 -0.375000 -0.125000    0.00195312  18 t-inv F
  0.125000  0.125000  0.375000    0.00195312  18 t-inv F
 -0.125000 -0.125000 -0.375000    0.00195312  18 t-inv F
 -0.125000  0.375000  0.125000    0.00195312  18 t-inv F
  0.125000 -0.375000 -0.125000    0.00195312  18 t-inv F
 -0.375000  0.125000  0.125000    0.00195312  18 t-inv F
  0.375000 -0.125000 -0.125000    0.00195312  18 t-inv F
 -0.125000  0.125000  0.375000    0.00195312  18 t-inv F
  0.125000 -0.125000 -0.375000    0.00195312  18 t-inv F
 -0.375000 -0.125000  0.125000    0.00195312  18 t-inv F
  0.375000  0.125000 -0.125000    0.00195312  18 t-inv F
 -0.125000 -0.375000  0.125000    0.00195312  18 t-inv F
  0.125000  0.375000 -0.125000    0.00195312  18 t-inv F
 -0.125000 -0.125000  0.375000    0.00195312  18 t-inv F
  0.125000  0.125000 -0.375000    0.00195312  18 t-inv F
  0.125000 -0.375000  0.125000    0.00195312  18 t-inv F
 -0.125000  0.375000 -0.125000    0.00195312  18 t-inv F
  0.375000 -0.125000  0.125000    0.00195312  18 t-inv F
 -0.375000  0.125000 -0.125000    0.00195312  18 t-inv F
  0.125000 -0.125000  0.375000    0.00195312  18 t-inv F
 -0.125000  0.125000 -0.375000    0.00195312  18 t-inv F
 -0.500000 -0.125000 -0.125000    0.00195312  19 t-inv F
  0.125000  0.500000  0.125000    0.00195312  19 t-inv F
 -0.125000 -0.500000 -0.125000    0.00195312  19 t-inv F
  0.125000  0.125000  0.500000    0.00195312  19 t-inv F
 -0.125000 -0.125000 -0.500000    0.00195312  19 t-inv F
 -0.125000  0.500000  0.125000    0.00195312  19 t-inv F
  0.125000 -0.500000 -0.125000    0.00195312  19 t-inv F
 -0.125000  0.125000  0.500000    0.00195312  19 t-inv F
  0.125000 -0.125000 -0.500000    0.00195312  19 t-inv F
 -0.500000 -0.125000  0.125000    0.00195312  19 t-inv F
  0.500000  0.125000 -0.125000    0.00195312  19 t-inv F
 -0.250000 -0.250000 -0.125000    0.00195312  20 t-inv F
  0.125000  0.250000  0.250000    0.00195312  20 t-inv F
 -0.125000 -0.250000 -0.250000    0.00195312  20 t-inv F
  0.250000  0.125000  0.250000    0.00195312  20 t-inv F
 -0.250000 -0.125000 -0.250000    0.00195312  20 t-inv F
 -0.250000  0.250000  0.125000    0.00195312  20 t-inv F
  0.250000 -0.250000 -0.125000    0.00195312  20 t-inv F
 -0.250000  0.125000  0.250000    0.00195312  20 t-inv F
  0.250000 -0.125000 -0.250000    0.00195312  20 t-inv F
 -0.125000  0.250000  0.250000    0.00195312  20 t-inv F
  0.125000 -0.250000 -0.250000    0.00195312  20 t-inv F
 -0.250000 -0.250000  0.125000    0.00195312  20 t-inv F
  0.250000  0.250000 -0.125000    0.00195312  20 t-inv F
 -0.125000 -0.250000  0.250000    0.00195312  20 t-inv F
  0.125000  0.250000 -0.250000    0.00195312  20 t-inv F
 -0.250000 -0.125000  0.250000    0.00195312  20 t-inv F
  0.250000  0.125000 -0.250000    0.00195312  20 t-inv F
  0.250000 -0.250000  0.125000    0.00195312  20 t-inv F
 -0.250000  0.250000 -0.125000    0.00195312  20 t-inv F
  0.250000 -0.125000  0.250000    0.00195312  20 t-inv F
 -0.250000  0.125000 -0.250000    0.00195312  20 t-inv F
  0.125000 -0.250000  0.250000    0.00195312  20 t-inv F
 -0.125000  0.250000 -0.250000    0.00195312  20 t-inv F
 -0.375000 -0.250000 -0.125000    0.00195312  21 t-inv F
  0.125000  0.375000  0.250000    0.00195312  21 t-inv F
 -0.125000 -0.375000 -0.250000    0.00195312  21 t-inv F
  0.250000  0.125000  0.375000    0.00195312  21 t-inv F
 -0.250000 -0.125000 -0.375000    0.00195312  21 t-inv F
 -0.250000  0.375000  0.125000    0.00195312  21 t-inv F
  0.250000 -0.375000 -0.125000    0.00195312  21 t-inv F
 -0.375000  0.125000  0.250000    0.00195312  21 t-inv F
  0.375000 -0.125000 -0.250000    0.00195312  21 t-inv F
 -0.125000  0.250000  0.375000    0.00195312  21 t-inv F
  0.125000 -0.250000 -0.375000    0.00195312  21 t-inv F
 -0.375000 -0.250000  0.125000    0.00195312  21 t-inv F
  0.375000  0.250000 -0.125000    0.00195312  21 t-inv F
 -0.125000 -0.375000  0.250000    0.00195312  21 t-inv F
  0.125000  0.375000 -0.250000    0.00195312  21 t-inv F
 -0.250000 -0.125000  0.375000    0.00195312  21 t-inv F
  0.250000  0.125000 -0.375000    0.00195312  21 t-inv F
  0.250000 -0.375000  0.125000    0.00195312  21 t-inv F
 -0.250000  0.375000 -0.125000    0.00195312  21 t-inv F
  0.375000 -0.125000  0.250000    0.00195312  21 t-inv F
 -0.375000  0.125000 -0.250000    0.00195312  21 t-inv F
  0.125000 -0.250000  0.375000    0.00195312  21 t-inv F
 -0.125000  0.250000 -0.375000    0.00195312  21 t-inv F
  0.125000 -0.375000 -0.250000    0.00195312  21 t-inv F
 -0.125000  0.375000  0.250000    0.00195312  21 t-inv F
  0.250000 -0.125000 -0.375000    0.00195312  21 t-inv F
 -0.250000  0.125000  0.375000    0.00195312  21 t-inv F
  0.375000 -0.250000 -0.125000    0.00195312  21 t-inv F
 -0.375000  0.250000  0.125000    0.00195312  21 t-inv F
  0.125000  0.250000 -0.375000    0.00195312  21 t-inv F
 -0.125000 -0.250000  0.375000    0.00195312  21 t-inv F
  0.250000  0.375000 -0.125000    0.00195312  21 t-inv F
 -0.250000 -0.375000  0.125000    0.00195312  21 t-inv F
  0.375000  0.125000 -0.250000    0.00195312  21 t-inv F
 -0.375000 -0.125000  0.250000    0.00195312  21 t-inv F
 -0.250000  0.125000 -0.375000    0.00195312  21 t-inv F
  0.250000 -0.125000  0.375000    0.00195312  21 t-inv F
 -0.375000  0.250000 -0.125000    0.00195312  21 t-inv F
  0.375000 -0.250000  0.125000    0.00195312  21 t-inv F
 -0.125000  0.375000 -0.250000    0.00195312  21 t-inv F
  0.125000 -0.375000  0.250000    0.00195312  21 t-inv F
 -0.375000 -0.125000 -0.250000    0.00195312  21 t-inv F
  0.375000  0.125000  0.250000    0.00195312  21 t-inv F
 -0.250000 -0.375000 -0.125000    0.00195312  21 t-inv F
  0.250000  0.375000  0.125000    0.00195312  21 t-inv F
 -0.125000 -0.250000 -0.375000    0.00195312  21 t-inv F
  0.125000  0.250000  0.375000    0.00195312  21 t-inv F
 -0.500000 -0.250000 -0.125000    0.00195312  22 t-inv F
  0.125000  0.500000  0.250000    0.00195312  22 t-inv F
 -0.125000 -0.500000 -0.250000    0.00195312  22 t-inv F
  0.250000  0.125000  0.500000    0.00195312  22 t-inv F
 -0.250000 -0.125000 -0.500000    0.00195312  22 t-inv F
 -0.250000  0.500000  0.125000    0.00195312  22 t-inv F
  0.250000 -0.500000 -0.125000    0.00195312  22 t-inv F
 -0.500000  0.125000  0.250000    0.00195312  22 t-inv F
  0.500000 -0.125000 -0.250000    0.00195312  22 t-inv F
 -0.125000  0.250000  0.500000    0.00195312  22 t-inv F
  0.125000 -0.250000 -0.500000    0.00195312  22 t-inv F
 -0.500000 -0.250000  0.125000    0.00195312  22 t-inv F
  0.500000  0.250000 -0.125000    0.00195312  22 t-inv F
 -0.125000 -0.500000  0.250000    0.00195312  22 t-inv F
  0.125000  0.500000 -0.250000    0.00195312  22 t-inv F
  0.250000 -0.500000  0.125000    0.00195312  22 t-inv F
 -0.250000  0.500000 -0.125000    0.00195312  22 t-inv F
  0.500000 -0.125000  0.250000    0.00195312  22 t-inv F
 -0.500000  0.125000 -0.250000    0.00195312  22 t-inv F
  0.250000 -0.125000 -0.500000    0.00195312  22 t-inv F
 -0.250000  0.125000  0.500000    0.00195312  22 t-inv F
  0.125000  0.250000 -0.500000    0.00195312  22 t-inv F
 -0.125000 -0.250000  0.500000    0.00195312  22 t-inv F
 -0.375000 -0.375000 -0.125000    0.00195312  23 t-inv F
  0.125000  0.375000  0.375000    0.00195312  23 t-inv F
 -0.125000 -0.375000 -0.375000    0.00195312  23 t-inv F
  0.375000  0.125000  0.375000    0.00195312  23 t-inv F
 -0.375000 -0.125000 -0.375000    0.00195312  23 t-inv F
 -0.375000  0.375000  0.125000    0.00195312  23 t-inv F
  0.375000 -0.375000 -0.125000    0.00195312  23 t-inv F
 -0.375000  0.125000  0.375000    0.00195312  23 t-inv F
  0.375000 -0.125000 -0.375000    0.00195312  23 t-inv F
 -0.125000  0.375000  0.375000    0.00195312  23 t-inv F
  0.125000 -0.375000 -0.375000    0.00195312  23 t-inv F
 -0.375000 -0.375000  0.125000    0.00195312  23 t-inv F
  0.375000  0.375000 -0.125000    0.00195312  23 t-inv F
 -0.125000 -0.375000  0.375000    0.00195312  23 t-inv F
  0.125000  0.375000 -0.375000    0.00195312  23 t-inv F
 -0.375000 -0.125000  0.375000    0.00195312  23 t-inv F
  0.375000  0.125000 -0.375000    0.00195312  23 t-inv F
  0.375000 -0.375000  0.125000    0.00195312  23 t-inv F
 -0.375000  0.375000 -0.125000    0.00195312  23 t-inv F
  0.375000 -0.125000  0.375000    0.00195312  23 t-inv F
 -0.375000  0.125000 -0.375000    0.00195312  23 t-inv F
  0.125000 -0.375000  0.375000    0.00195312  23 t-inv F
 -0.125000  0.375000 -0.375000    0.00195312  23 t-inv F
 -0.500000 -0.375000 -0.125000    0.00195312  24 t-inv F
  0.125000  0.500000  0.375000    0.00195312  24 t-inv F
 -0.125000 -0.500000 -0.375000    0.00195312  24 t-inv F
  0.375000  0.125000  0.500000    0.00195312  24 t-inv F
 -0.375000 -0.125000 -0.500000    0.00195312  24 t-inv F
 -0.375000  0.500000  0.125000    0.00195312  24 t-inv F
  0.375000 -0.500000 -0.125000    0.00195312  24 t-inv F
 -0.500000  0.125000  0.375000    0.00195312  24 t-inv F
  0.500000 -0.125000 -0.375000    0.00195312  24 t-inv F
 -0.125000  0.375000  0.500000    0.00195312  24 t-inv F
  0.125000 -0.375000 -0.500000    0.00195312  24 t-inv F
 -0.500000 -0.375000  0.125000    0.00195312  24 t-inv F
  0.500000  0.375000 -0.125000    0.00195312  24 t-inv F
 -0.125000 -0.500000  0.375000    0.00195312  24 t-inv F
  0.125000  0.500000 -0.375000    0.00195312  24 t-inv F
  0.375000 -0.500000  0.125000    0.00195312  24 t-inv F
 -0.375000  0.500000 -0.125000    0.00195312  24 t-inv F
  0.500000 -0.125000  0.375000    0.00195312  24 t-inv F
 -0.500000  0.125000 -0.375000    0.00195312  24 t-inv F
  0.375000 -0.125000 -0.500000    0.00195312  24 t-inv F
 -0.375000  0.125000  0.500000    0.00195312  24 t-inv F
  0.125000  0.375000 -0.500000    0.00195312  24 t-inv F
 -0.125000 -0.375000  0.500000    0.00195312  24 t-inv F
 -0.500000 -0.500000 -0.125000    0.00195312  25 t-inv F
  0.125000  0.500000  0.500000    0.00195312  25 t-inv F
 -0.125000 -0.500000 -0.500000    0.00195312  25 t-inv F
  0.500000  0.125000  0.500000    0.00195312  25 t-inv F
 -0.500000 -0.125000 -0.500000    0.00195312  25 t-inv F
 -0.250000 -0.250000 -0.250000    0.00195312  26 t-inv F
 -0.250000  0.250000  0.250000    0.00195312  26 t-inv F
  0.250000 -0.250000 -0.250000    0.00195312  26 t-inv F
 -0.250000 -0.250000  0.250000    0.00195312  26 t-inv F
  0.250000  0.250000 -0.250000    0.00195312  26 t-inv F
  0.250000 -0.250000  0.250000    0.00195312  26 t-inv F
 -0.250000  0.250000 -0.250000    0.00195312  26 t-inv F
 -0.375000 -0.250000 -0.250000    0.00195312  27 t-inv F
  0.250000  0.375000  0.250000    0.00195312  27 t-inv F
 -0.250000 -0.375000 -0.250000    0.00195312  27 t-inv F
  0.250000  0.250000  0.375000    0.00195312  27 t-inv F
 -0.250000 -0.250000 -0.375000    0.00195312  27 t-inv F
 -0.250000  0.375000  0.250000    0.00195312  27 t-inv F
  0.250000 -0.375000 -0.250000    0.00195312  27 t-inv F
 -0.375000  0.250000  0.250000    0.00195312  27 t-inv F
  0.375000 -0.250000 -0.250000    0.00195312  27 t-inv F
 -0.250000  0.250000  0.375000    0.00195312  27 t-inv F
  0.250000 -0.250000 -0.375000    0.00195312  27 t-inv F
 -0.375000 -0.250000  0.250000    0.00195312  27 t-inv F
  0.375000  0.250000 -0.250000    0.00195312  27 t-inv F
 -0.250000 -0.375000  0.250000    0.00195312  27 t-inv F
  0.250000  0.375000 -0.250000    0.00195312  27 t-inv F
 -0.250000 -0.250000  0.375000    0.00195312  27 t-inv F
  0.250000  0.250000 -0.375000    0.00195312  27 t-inv F
  0.250000 -0.375000  0.250000    0.00195312  27 t-inv F
 -0.250000  0.375000 -0.250000    0.00195312  27 t-inv F
  0.375000 -0.250000  0.250000    0.00195312  27 t-inv F
 -0.375000  0.250000 -0.250000    0.00195312  27 t-inv F
  0.250000 -0.250000  0.375000    0.00195312  27 t-inv F
 -0.250000  0.250000 -0.375000    0.00195312  27 t-inv F
 -0.500000 -0.250000 -0.250000    0.00195312  28 t-inv F
  0.250000  0.500000  0.250000    0.00195312  28 t-inv F
 -0.250000 -0.500000 -0.250000    0.00195312  28 t-inv F
  0.250000  0.250000  0.500000    0.00195312  28 t-inv F
 -0.250000 -0.250000 -0.500000    0.00195312  28 t-inv F
 -0.250000  0.500000  0.250000    0.00195312  28 t-inv F
  0.250000 -0.500000 -0.250000    0.00195312  28 t-inv F
 -0.250000  0.250000  0.500000    0.00195312  28 t-inv F
  0.250000 -0.250000 -0.500000    0.00195312  28 t-inv F
 -0.500000 -0.250000  0.250000    0.00195312  28 t-inv F
  0.500000  0.250000 -0.250000    0.00195312  28 t-inv F
 -0.375000 -0.375000 -0.250000    0.00195312  29 t-inv F
  0.250000  0.375000  0.375000    0.00195312  29 t-inv F
 -0.250000 -0.375000 -0.375000    0.00195312  29 t-inv F
  0.375000  0.250000  0.375000    0.00195312  29 t-inv F
 -0.375000 -0.250000 -0.375000    0.00195312  29 t-inv F
 -0.375000  0.375000  0.250000    0.00195312  29 t-inv F
  0.375000 -0.375000 -0.250000    0.00195312  29 t-inv F
 -0.375000  0.250000  0.375000    0.00195312  29 t-inv F
  0.375000 -0.250000 -0.375000    0.00195312  29 t-inv F
 -0.250000  0.375000  0.375000    0.00195312  29 t-inv F
  0.250000 -0.375000 -0.375000    0.00195312  29 t-inv F
 -0.375000 -0.375000  0.250000    0.00195312  29 t-inv F
  0.375000  0.375000 -0.250000    0.00195312  29 t-inv F
 -0.250000 -0.375000  0.375000    0.00195312  29 t-inv F
  0.250000  0.375000 -0.375000    0.00195312  29 t-inv F
 -0.375000 -0.250000  0.375000    0.00195312  29 t-inv F
  0.375000  0.250000 -0.375000    0.00195312  29 t-inv F
  0.375000 -0.375000  0.250000    0.00195312  29 t-inv F
 -0.375000  0.375000 -0.250000    0.00195312  29 t-inv F
  0.375000 -0.250000  0.375000    0.00195312  29 t-inv F
 -0.375000  0.250000 -0.375000    0.00195312  29 t-inv F
  0.250000 -0.375000  0.375000    0.00195312  29 t-inv F
 -0.250000  0.375000 -0.375000    0.00195312  29 t-inv F
 -0.500000 -0.375000 -0.250000    0.00195312  30 t-inv F
  0.250000  0.500000  0.375000    0.00195312  30 t-inv F
 -0.250000 -0.500000 -0.375000    0.00195312  30 t-inv F
  0.375000  0.250000  0.500000    0.00195312  30 t-inv F
 -0.375000 -0.250000 -0.500000    0.00195312  30 t-inv F
 -0.375000  0.500000  0.250000    0.00195312  30 t-inv F
  0.375000 -0.500000 -0.250000    0.00195312  30 t-inv F
 -0.500000  0.250000  0.375000    0.00195312  30 t-inv F
  0.500000 -0.250000 -0.375000    0.00195312  30 t-inv F
 -0.250000  0.375000  0.500000    0.00195312  30 t-inv F
  0.250000 -0.375000 -0.500000    0.00195312  30 t-inv F
 -0.500000 -0.375000  0.250000    0.00195312  30 t-inv F
  0.500000  0.375000 -0.250000    0.00195312  30 t-inv F
 -0.250000 -0.500000  0.375000    0.00195312  30 t-inv F
  0.250000  0.500000 -0.375000    0.00195312  30 t-inv F
  0.375000 -0.500000  0.250000    0.00195312  30 t-inv F
 -0.375000  0.500000 -0.250000    0.00195312  30 t-inv F
  0.500000 -0.250000  0.375000    0.00195312  30 t-inv F
 -0.500000  0.250000 -0.375000    0.00195312  30 t-inv F
  0.375000 -0.250000 -0.500000    0.00195312  30 t-inv F
 -0.375000  0.250000  0.500000    0.00195312  30 t-inv F
  0.250000  0.375000 -0.500000    0.00195312  30 t-inv F
 -0.250000 -0.375000  0.500000    0.00195312  30 t-inv F
 -0.500000 -0.500000 -0.250000    0.00195312  31 t-inv F
  0.250000  0.500000  0.500000    0.00195312  31 t-inv F
 -0.250000 -0.500000 -0.500000    0.00195312  31 t-inv F
  0.500000  0.250000  0.500000    0.00195312  31 t-inv F
 -0.500000 -0.250000 -0.500000    0.00195312  31 t-inv F
 -0.375000 -0.375000 -0.375000    0.00195312  32 t-inv F
 -0.375000  0.375000  0.375000    0.00195312  32 t-inv F
  0.375000 -0.375000 -0.375000    0.00195312  32 t-inv F
 -0.375000 -0.375000  0.375000    0.00195312  32 t-inv F
  0.375000  0.375000 -0.375000    0.00195312  32 t-inv F
  0.375000 -0.375000  0.375000    0.00195312  32 t-inv F
 -0.375000  0.375000 -0.375000    0.00195312  32 t-inv F
 -0.500000 -0.375000 -0.375000    0.00195312  33 t-inv F
  0.375000  0.500000  0.375000    0.00195312  33 t-inv F
 -0.375000 -0.500000 -0.375000    0.00195312  33 t-inv F
  0.375000  0.375000  0.500000    0.00195312  33 t-inv F
 -0.375000 -0.375000 -0.500000    0.00195312  33 t-inv F
 -0.375000  0.500000  0.375000    0.00195312  33 t-inv F
  0.375000 -0.500000 -0.375000    0.00195312  33 t-inv F
 -0.375000  0.375000  0.500000    0.00195312  33 t-inv F
  0.375000 -0.375000 -0.500000    0.00195312  33 t-inv F
 -0.500000 -0.375000  0.375000    0.00195312  33 t-inv F
  0.500000  0.375000 -0.375000    0.00195312  33 t-inv F
 -0.500000 -0.500000 -0.375000    0.00195312  34 t-inv F
  0.375000  0.500000  0.500000    0.00195312  34 t-inv F
 -0.375000 -0.500000 -0.500000    0.00195312  34 t-inv F
  0.500000  0.375000  0.500000    0.00195312  34 t-inv F
 -0.500000 -0.375000 -0.500000    0.00195312  34 t-inv F


--------------------------------------------------------------------------------------------------------




 Dimension of arrays:
   k-points           NKPTS =     35   k-points in BZ     NKDIM =     35   number of bands    NBANDS=     48
   number of dos      NEDOS =    301   number of ions     NIONS =      4
   non local maximal  LDIM  =      4   non local SUM 2l+1 LMDIM =      8
   total plane-waves  NPLWV =   5832
   max r-space proj   IRMAX =      1   max aug-charges    IRDMAX=   3641
   dimension x,y,z NGX =    18 NGY =   18 NGZ =   18
   dimension x,y,z NGXF=    36 NGYF=   36 NGZF=   36
   support grid    NGXF=    36 NGYF=   36 NGZF=   36
   ions per type =               4
   NGX,Y,Z   is equivalent  to a cutoff of   7.41,  7.41,  7.41 a.u.
   NGXF,Y,Z  is equivalent  to a cutoff of  14.81, 14.81, 14.81 a.u.

 SYSTEM =  Al                                      
 POSCAR =  Al4                                     

 Startparameter for this run:
   NWRITE =      2    write-flag & timer
   PREC   = normal    normal or accurate (medium, high low for compatibility)
   ISTART =      1    job   : 0-new  1-cont  2-samecut
   ICHARG =      0    charge: 1-file 2-atom 10-const
   ISPIN  =      1    spin polarized calculation?
   LNONCOLLINEAR =      F non collinear calculations
   LSORBIT =      F    spin-orbit coupling
   INIWAV =      1    electr: 0-lowe 1-rand  2-diag
   LASPH  =      F    aspherical Exc in radial PAW
 Electronic Relaxation 1
   ENCUT  =  312.4 eV  22.96 Ry    4.79 a.u.   5.82  5.82  5.82*2*pi/ulx,y,z
   ENINI  =  312.4     initial cutoff
   ENAUG  =  291.1 eV  augmentation charge cutoff
   NELM   =     60;   NELMIN=  2; NELMDL=  0     # of ELM steps 
   EDIFF  = 0.1E-03   stopping-criterion for ELM
   LREAL  =      F    real-space projection
   NLSPLINE    = F    spline interpolate recip. space projectors
   LCOMPAT=      F    compatible to vasp.4.4
   GGA_COMPAT  = T    GGA compatible to vasp.4.4-vasp.4.6
   LMAXPAW     = -100 max onsite density
   LMAXMIX     =    2 max onsite mixed and CHGCAR
   VOSKOWN=      0    Vosko Wilk Nusair interpolation
   ROPT   =    0.00000
 Ionic relaxation
   EDIFFG = 0.1E-02   stopping-criterion for IOM
   NSW    =      0    number of steps for IOM
   NBLOCK =      1;   KBLOCK =      1    inner block; outer block 
   IBRION =     -1    ionic relax: 0-MD 1-quasi-New 2-CG
   NFREE  =      0    steps in history (QN), initial steepest desc. (CG)
   ISIF   =      2    stress and relaxation
   IWAVPR =     10    prediction:  0-non 1-charg 2-wave 3-comb
   ISYM   =      2    0-nonsym 1-usesym 2-fastsym
   LCORR  =      T    Harris-Foulkes like correction to forces

   POTIM  = 0.5000    time-step for ionic-motion
   TEIN   =    0.0    initial temperature
   TEBEG  =    0.0;   TEEND  =   0.0 temperature during run
   SMASS  =  -3.00    Nose mass-parameter (am)
   estimated Nose-frequenzy (Omega)   =  0.10E-29 period in steps = 0.13E+47 mass=  -0.373E-27a.u.
   SCALEE = 1.0000    scale energy and forces
   NPACO  =    256;   APACO  = 10.0  distance and # of slots for P.C.
   PSTRESS=    0.0 pullay stress

  Mass of Ions in am
   POMASS =  26.98
  Ionic Valenz
   ZVAL   =   3.00
  Atomic Wigner-Seitz radii
   RWIGS  =  -1.00
  virtual crystal weights 
   VCA    =   1.00
   NELECT =      12.0000    total number of electrons
   NUPDOWN=      -1.0000    fix difference up-down

 DOS related values:
   EMIN   =  10.00;   EMAX   =-10.00  energy-range for DOS
   EFERMI =   0.00;   METHOD = LEGACY      
   ISMEAR =     0;   SIGMA  =   0.05  broadening in eV -4-tet -1-fermi 0-gaus

 Electronic relaxation 2 (details)
   IALGO  =     38    algorithm
   LDIAG  =      T    sub-space diagonalisation (order eigenvalues)
   LSUBROT=      F    optimize rotation matrix (better conditioning)
   TURBO    =      0    0=normal 1=particle mesh
   IRESTART =      0    0=no restart 2=restart with 2 vectors
   NREBOOT  =      0    no. of reboots
   NMIN     =      0    reboot dimension
   EREF     =   0.00    reference energy to select bands
   IMIX   =      4    mixing-type and parameters
     AMIX     =   0.40;   BMIX     =  1.00
     AMIX_MAG =   1.60;   BMIX_MAG =  1.00
     AMIN     =   0.10
     WC   =   100.;   INIMIX=   1;  MIXPRE=   1;  MAXMIX= -45

 Intra band minimization:
   WEIMIN = 0.0000     energy-eigenvalue tresh-hold
   EBREAK =  0.52E-06  absolut break condition
   DEPER  =   0.30     relativ break condition  

   TIME   =   0.40     timestep for ELM

  volume/ion in A,a.u.               =      16.49       111.26
  Fermi-wavevector in a.u.,A,eV,Ry     =   0.927680  1.753060 11.709028  0.860589
  Thomas-Fermi vector in A             =   2.053775
 
 Write flags
   LWAVE        =      T    write WAVECAR
   LDOWNSAMPLE  =      F    k-point downsampling of WAVECAR
   LCHARG       =      T    write CHGCAR
   LVTOT        =      F    write LOCPOT, total local potential
   LVHAR        =      F    write LOCPOT, Hartree potential only
   WRT_POTENTIAL= false  ! write potential to hdf5 file
   LELF         =      F    write electronic localiz. function (ELF)
   LORBIT       =      0    0 simple, 1 ext, 2 COOP (PROOUT), +10 PAW based schemes


 Dipole corrections
   LMONO      =      F    monopole corrections only (constant potential shift)
   LDIPOL     =      F    correct potential (dipole corrections)
   IDIPOL     =      0    1-x, 2-y, 3-z, 4-all directions 
   EPSILON    =  1.0000000 bulk dielectric constant
   LVACPOTAV  =      F  vacuum potentials using an averaging scheme for the charge density
   VACPOTFLAT =  0.1000000 required flatness to determine vacuum potential
 Exchange correlation treatment:
   GGA     = PE    functional components
   XC_C    = 1    coefficients multiplying the functional components
   LIBXC   =     F    Libxc                    
   VOSKOWN =     0    Vosko Wilk Nusair interpolation
   LHFCALC =     F    Hartree Fock is set to
   LHFONE  =     F    Hartree Fock one center treatment
   AEXX    =    0.0000 exact exchange contribution

 Parameters of functionals:
   PE:
     No parameter
 
 Van der Waals corrections
   IVDW    =     0    specifies the selected vdW correction

 Linear response parameters
   LEPSILON=     F    determine dielectric tensor
   LRPA    =     F    only Hartree local field effects (RPA)
   LNABLA  =     F    use nabla operator in PAW spheres
   LVEL    =     F    velocity operator in full k-point grid
   CSHIFT  =0.1000    complex shift for real part using Kramers Kronig
   OMEGAMAX=  -1.0    maximum frequency
   DEG_THRESHOLD= 0.2000000E-02 threshold for treating states as degnerate
   RTIME   =   -0.100 relaxation time in fs
  (WPLASMAI=    0.000 imaginary part of plasma frequency in eV, 0.658/RTIME)
   DFIELD  = 0.0000000 0.0000000 0.0000000 field for delta impulse in time
 
  Optional k-point grid parameters
   LKPOINTS_OPT  =     T    use optional k-point grid
   KPOINTS_OPT_MODE=     1    mode for optional k-point grid
 
 Orbital magnetization related:
   ORBITALMAG=     F  switch on orbital magnetization
   LCHIMAG   =     F  perturbation theory with respect to B field
   DQ        =  0.001000  dq finite difference perturbation B field
   LLRAUG    =     F  two centre corrections for induced B field
   LBONE     =     F  B-component reconstruction in AE one-centre
   LVGVCALC  =     T  calculate vGv susceptibility
   LVGVAPPL  =     F  apply vGv susceptibility instead of pGv for G=0

 Random number generation:
   RANDOM_GENERATOR = DEFAULT
   PCG_SEED         = not used


--------------------------------------------------------------------------------------------------------


 Static calculation
 charge density and potential will be updated during run
 non-spin polarized calculation
 Variant of blocked Davidson
 Davidson routine will perform the subspace rotation
 perform sub-space diagonalisation
    after iterative eigenvector-optimisation
 modified Broyden-mixing scheme, WC =      100.0
 initial mixing is a Kerker type mixing with AMIX =  0.4000 and BMIX =      1.0000
 Hartree-type preconditioning will be used
 using additional bands           42
 reciprocal scheme for non local part
 use partial core corrections
 calculate Harris-corrections to forces 
   (improved forces if not selfconsistent)
 use gradient corrections 
 use of overlap-Matrix (Vanderbilt PP)
 Gauss-broadening in eV      SIGMA  =   0.05


--------------------------------------------------------------------------------------------------------


  energy-cutoff  :      312.39
  volume of cell :       65.95
      direct lattice vectors                 reciprocal lattice vectors
     4.040210000  0.000000000  0.000000000     0.247511887 -0.000000000  0.000000000
     0.000000000  4.040210000  0.000000000     0.000000000  0.247511887  0.000000000
     0.000000000  0.000000000  4.040210000    -0.000000000 -0.000000000  0.247511887

  length of vectors
     4.040210000  4.040210000  4.040210000     0.247511887  0.247511887  0.247511887


 
 old parameters found on file WAVECAR:
  energy-cutoff  :      312.39
  volume of cell :       65.95
      direct lattice vectors                 reciprocal lattice vectors
     4.040210000  0.000000000  0.000000000     0.247511887 -0.000000000  0.000000000
     0.000000000  4.040210000  0.000000000     0.000000000  0.247511887  0.000000000
     0.000000000  0.000000000  4.040210000    -0.000000000 -0.000000000  0.247511887

  length of vectors

 
 k-points in units of 2pi/SCALE and weight: Automatic kpoint scheme                 
   0.00000000  0.00000000  0.00000000       0.002
   0.03093899 -0.00000000  0.00000000       0.012
   0.06187797 -0.00000000  0.00000000       0.012
   0.09281696 -0.00000000  0.00000000       0.012
   0.12375594 -0.00000000  0.00000000       0.006
   0.03093899  0.03093899  0.00000000       0.023
   0.06187797  0.03093899  0.00000000       0.047
   0.09281696  0.03093899  0.00000000       0.047
   0.12375594  0.03093899  0.00000000       0.023
   0.06187797  0.06187797  0.00000000       0.023
   0.09281696  0.06187797  0.00000000       0.047
   0.12375594  0.06187797  0.00000000       0.023
   0.09281696  0.09281696  0.00000000       0.023
   0.12375594  0.09281696  0.00000000       0.023
   0.12375594  0.12375594  0.00000000       0.006
   0.03093899  0.03093899  0.03093899       0.016
   0.06187797  0.03093899  0.03093899       0.047
   0.09281696  0.03093899  0.03093899       0.047
   0.12375594  0.03093899  0.03093899       0.023
   0.06187797  0.06187797  0.03093899       0.047
   0.09281696  0.06187797  0.03093899       0.094
   0.12375594  0.06187797  0.03093899       0.047
   0.09281696  0.09281696  0.03093899       0.047
   0.12375594  0.09281696  0.03093899       0.047
   0.12375594  0.12375594  0.03093899       0.012
   0.06187797  0.06187797  0.06187797       0.016
   0.09281696  0.06187797  0.06187797       0.047
   0.12375594  0.06187797  0.06187797       0.023
   0.09281696  0.09281696  0.06187797       0.047
   0.12375594  0.09281696  0.06187797       0.047
   0.12375594  0.12375594  0.06187797       0.012
   0.09281696  0.09281696  0.09281696       0.016
   0.12375594  0.09281696  0.09281696       0.023
   0.12375594  0.12375594  0.09281696       0.012
   0.12375594  0.12375594  0.12375594       0.002
 
 k-points in reciprocal lattice and weights: Automatic kpoint scheme                 
   0.00000000  0.00000000  0.00000000       0.002
   0.12500000  0.00000000  0.00000000       0.012
   0.25000000  0.00000000  0.00000000       0.012
   0.37500000  0.00000000  0.00000000       0.012
   0.50000000  0.00000000  0.00000000       0.006
   0.12500000  0.12500000  0.00000000       0.023
   0.25000000  0.12500000  0.00000000       0.047
   0.37500000  0.12500000  0.00000000       0.047
   0.50000000  0.12500000  0.00000000       0.023
   0.25000000  0.25000000  0.00000000       0.023
   0.37500000  0.25000000  0.00000000       0.047
   0.50000000  0.25000000  0.00000000       0.023
   0.37500000  0.37500000  0.00000000       0.023
   0.50000000  0.37500000  0.00000000       0.023
   0.50000000  0.50000000  0.00000000       0.006
   0.12500000  0.12500000  0.12500000       0.016
   0.25000000  0.12500000  0.12500000       0.047
   0.37500000  0.12500000  0.12500000       0.047
   0.50000000  0.12500000  0.12500000       0.023
   0.25000000  0.25000000  0.12500000       0.047
   0.37500000  0.25000000  0.12500000       0.094
   0.50000000  0.25000000  0.12500000       0.047
   0.37500000  0.37500000  0.12500000       0.047
   0.50000000  0.37500000  0.12500000       0.047
   0.50000000  0.50000000  0.12500000       0.012
   0.25000000  0.25000000  0.25000000       0.016
   0.37500000  0.25000000  0.25000000       0.047
   0.50000000  0.25000000  0.25000000       0.023
   0.37500000  0.37500000  0.25000000       0.047
   0.50000000  0.37500000  0.25000000       0.047
   0.50000000  0.50000000  0.25000000       0.012
   0.37500000  0.37500000  0.37500000       0.016
   0.50000000  0.37500000  0.37500000       0.023
   0.50000000  0.50000000  0.37500000       0.012
   0.50000000  0.50000000  0.50000000       0.002
 
 position of ions in fractional coordinates (direct lattice) 
   0.00000000  0.00000000  0.00000000
   0.00000000  0.50000000  0.50000000
   0.50000000  0.00000000  0.50000000
   0.50000000  0.50000000  0.00000000
 
 position of ions in cartesian coordinates  (Angst):
   0.00000000  0.00000000  0.00000000
   0.00000000  2.02010500  2.02010500
   2.02010500  0.00000000  2.02010500
   2.02010500  2.02010500  0.00000000
 


--------------------------------------------------------------------------------------------------------


 k-point     1 :   0.0000 0.0000 0.0000  plane waves:     799
 k-point     2 :   0.1250 0.0000 0.0000  plane waves:     815
 k-point     3 :   0.2500 0.0000 0.0000  plane waves:     812
 k-point     4 :   0.3750 0.0000 0.0000  plane waves:     828
 k-point     5 :   0.5000 0.0000 0.0000  plane waves:     820
 k-point     6 :   0.1250 0.1250 0.0000  plane waves:     816
 k-point     7 :   0.2500 0.1250 0.0000  plane waves:     826
 k-point     8 :   0.3750 0.1250 0.0000  plane waves:     830
 k-point     9 :   0.5000 0.1250 0.0000  plane waves:     830
 k-point    10 :   0.2500 0.2500 0.0000  plane waves:     822
 k-point    11 :   0.3750 0.2500 0.0000  plane waves:     827
 k-point    12 :   0.5000 0.2500 0.0000  plane waves:     824
 k-point    13 :   0.3750 0.3750 0.0000  plane waves:     834
 k-point    14 :   0.5000 0.3750 0.0000  plane waves:     832
 k-point    15 :   0.5000 0.5000 0.0000  plane waves:     840
 k-point    16 :   0.1250 0.1250 0.1250  plane waves:     820
 k-point    17 :   0.2500 0.1250 0.1250  plane waves:     828
 k-point    18 :   0.3750 0.1250 0.1250  plane waves:     823
 k-point    19 :   0.5000 0.1250 0.1250  plane waves:     832
 k-point    20 :   0.2500 0.2500 0.1250  plane waves:     833
 k-point    21 :   0.3750 0.2500 0.1250  plane waves:     822
 k-point    22 :   0.5000 0.2500 0.1250  plane waves:     824
 k-point    23 :   0.3750 0.3750 0.1250  plane waves:     828
 k-point    24 :   0.5000 0.3750 0.1250  plane waves:     824
 k-point    25 :   0.5000 0.5000 0.1250  plane waves:     836
 k-point    26 :   0.2500 0.2500 0.2500  plane waves:     838
 k-point    27 :   0.3750 0.2500 0.2500  plane waves:     825
 k-point    28 :   0.5000 0.2500 0.2500  plane waves:     836
 k-point    29 :   0.3750 0.3750 0.2500  plane waves:     832
 k-point    30 :   0.5000 0.3750 0.2500  plane waves:     828
 k-point    31 :   0.5000 0.5000 0.2500  plane waves:     824
 k-point    32 :   0.3750 0.3750 0.3750  plane waves:     822
 k-point    33 :   0.5000 0.3750 0.3750  plane waves:     834
 k-point    34 :   0.5000 0.5000 0.3750  plane waves:     852
 k-point    35 :   0.5000 0.5000 0.5000  plane waves:     840

 maximum and minimum number of plane-waves per node :       852      799

 maximum number of plane-waves:       852
 maximum index in each direction: 
   IXMAX=    5   IYMAX=    5   IZMAX=    5
   IXMIN=   -6   IYMIN=   -6   IZMIN=   -6


 serial   3D FFT for wavefunctions
 parallel 3D FFT for charge:
    minimum data exchange during FFTs selected (reduces bandwidth)


 total amount of memory used by VASP MPI-rank0    32892. kBytes
=======================================================================

   base      :      30000. kBytes
   nonl-proj :       1990. kBytes
   fftplans  :         78. kBytes
   grid      :        302. kBytes
   one-center:         12. kBytes
   wavefun   :        510. kBytes
 
     INWAV:  cpu time      0.0700: real time      0.0702
 Broyden mixing: mesh for mixing (old mesh)
   NGX = 11   NGY = 11   NGZ = 11
  (NGX  = 36   NGY  = 36   NGZ  = 36)
  gives a total of   1331 points

 charge density for first step will be calculated from the start-wavefunctions


--------------------------------------------------------------------------------------------------------


 Maximum index for augmentation-charges          277 (set IRDMAX)


--------------------------------------------------------------------------------------------------------


 initial charge from wavefunction
 First call to EWALD:  gamma=   0.439
 Maximum number of real-space cells 3x 3x 3
 Maximum number of reciprocal cells 3x 3x 3

    FEWALD:  cpu time      0.0014: real time      0.0014


--------------------------------------- Ionic step        1  -------------------------------------------




--------------------------------------- Iteration      1(   1)  ---------------------------------------


    POTLOK:  cpu time      0.0027: real time      0.0047
    SETDIJ:  cpu time      0.0014: real time      0.0014
     EDDAV:  cpu time      0.4907: real time      0.4909
       DOS:  cpu time      0.0023: real time      0.0025
    CHARGE:  cpu time      0.0047: real time      0.0047
    MIXING:  cpu time      0.0007: real time      0.0010
    --------------------------------------------
      LOOP:  cpu time      0.5026: real time      0.5052

 eigenvalue-minimisations  :  2688
 total energy-change (2. order) :-0.1498812E+02  (-0.1720681E-08)
 number of electron      11.9999994 magnetization 
 augmentation part       -0.1542002 magnetization 

 Broyden mixing:
  rms(total) = 0.17344E-04    rms(broyden)= 0.17344E-04
  rms(prec ) = 0.17680E-04
  weight for this iteration     100.00

 Free energy of the ion-electron system (eV)
  ---------------------------------------------------
  alpha Z        PSCENC =        -0.81487987
  Ewald energy   TEWEN  =      -294.13785363
  -Hartree energ DENC   =        -0.42237847
  -exchange      EXHF   =         0.00000000
  -V(xc)+E(xc)   XCENC  =      -104.51981250
  PAW double counting   =       590.05579835     -462.29353679
  entropy T*S    EENTRO =        -0.00320427
  eigenvalues    EBANDS =        42.99652368
  atomic energy  EATOM  =       214.15122755
  Solvation  Ediel_sol  =         0.00000000
  ---------------------------------------------------
  free energy    TOTEN  =       -14.98811595 eV

  energy without entropy =      -14.98491169  energy(sigma->0) =      -14.98651382


--------------------------------------------------------------------------------------------------------




--------------------------------------- Iteration      1(   2)  ---------------------------------------


    POTLOK:  cpu time      0.0030: real time      0.0037
    SETDIJ:  cpu time      0.0011: real time      0.0011
     EDDAV:  cpu time      0.5220: real time      0.5219
       DOS:  cpu time      0.0004: real time      0.0004
    --------------------------------------------
      LOOP:  cpu time      0.5265: real time      0.5271

 eigenvalue-minimisations  :  2784
 total energy-change (2. order) : 0.6218670E-09  (-0.7883369E-10)
 number of electron      11.9999994 magnetization 
 augmentation part       -0.1542002 magnetization 

 Free energy of the ion-electron system (eV)
  ---------------------------------------------------
  alpha Z        PSCENC =        -0.81487987
  Ewald energy   TEWEN  =      -294.13785363
  -Hartree energ DENC   =        -0.42237864
  -exchange      EXHF   =         0.00000000
  -V(xc)+E(xc)   XCENC  =      -104.51981170
  PAW double counting   =       590.06208543     -462.29982366
  entropy T*S    EENTRO =        -0.00320426
  eigenvalues    EBANDS =        42.99652283
  atomic energy  EATOM  =       214.15122755
  Solvation  Ediel_sol  =         0.00000000
  ---------------------------------------------------
  free energy    TOTEN  =       -14.98811595 eV

  energy without entropy =      -14.98491169  energy(sigma->0) =      -14.98651382


--------------------------------------------------------------------------------------------------------




 average (electrostatic) potential at core
  the test charge radii are     1.0406
  (the norm of the test charge is              1.0000)
       1 -72.6079       2 -72.6079       3 -72.6079       4 -72.6079
 
 
 
 E-fermi :   8.1498     XC(G=0): -10.1986     alpha+bet :-14.8877

 val. band max:        8.1470461172   @ k =   0.3750   0.3750   0.1250
 cond. band min:       8.1803379706   @ k =   0.5000   0.0000   0.0000
 fundamental gap:      0.0332918534
 Fermi energy:         8.1497690505

 k-point     1 :       0.0000    0.0000    0.0000
  band No.  band energies     occupation 
      1      -3.1302      2.00000
      2       5.0844      2.00000
      3       5.0844      2.00000
      4       5.0844      2.00000
      5       6.4109      2.00000
      6       6.4109      2.00000
      7       6.4109      2.00000
      8      13.2832      0.00000
      9      13.2832      0.00000
     10      13.2832      0.00000
     11      13.6086      0.00000
     12      13.6086      0.00000
     13      13.6086      0.00000
     14      13.6086      0.00000
     15      13.6086      0.00000
     16      13.6086      0.00000
     17      17.0931      0.00000
     18      17.0931      0.00000
     19      17.0931      0.00000
     20      20.6726      0.00000
     21      20.6726      0.00000
     22      20.6726      0.00000
     23      22.1327      0.00000
     24      22.1327      0.00000
     25      22.1327      0.00000
     26      24.4857      0.00000
     27      27.5037      0.00000
     28      27.5037      0.00000
     29      30.3082      0.00000
     30      32.6661      0.00000
     31      32.6661      0.00000
     32      32.6661      0.00000
     33      33.5086      0.00000
     34      33.5086      0.00000
     35      33.5086      0.00000
     36      35.0185      0.00000
     37      35.0185      0.00000
     38      35.0185      0.00000
     39      35.0185      0.00000
     40      35.0185      0.00000
     41      35.0185      0.00000
     42      40.6196      0.00000
     43      40.6196      0.00000
     44      40.6196      0.00000
     45      41.3603      0.00000
     46      41.4626      0.00000
     47      41.4626      0.00000
     48      41.4626      0.00000

 k-point     2 :       0.1250    0.0000    0.0000
  band No.  band energies     occupation 
      1      -2.9885      2.00000
      2       3.6108      2.00000
      3       5.2141      2.00000
      4       5.2141      2.00000
      5       6.5474      2.00000
      6       6.5474      2.00000
      7       8.1307      1.41118
      8      11.4723      0.00000
      9      11.4723      0.00000
     10      12.7474      0.00000
     11      12.7474      0.00000
     12      13.4222      0.00000
     13      13.7290      0.00000
     14      13.7290      0.00000
     15      15.6815      0.00000
     16      15.6815      0.00000
     17      17.2231      0.00000
     18      18.1659      0.00000
     19      18.1659      0.00000
     20      19.4544      0.00000
     21      19.4544      0.00000
     22      19.7442      0.00000
     23      21.7964      0.00000
     24      23.5549      0.00000
     25      23.5549      0.00000
     26      25.6966      0.00000
     27      25.8050      0.00000
     28      27.6344      0.00000
     29      30.3863      0.00000
     30      32.7409      0.00000
     31      32.7409      0.00000
     32      32.8274      0.00000
     33      32.8274      0.00000
     34      32.9849      0.00000
     35      33.3529      0.00000
     36      33.3529      0.00000
     37      34.5388      0.00000
     38      34.5388      0.00000
     39      34.5444      0.00000
     40      35.0372      0.00000
     41      35.0372      0.00000
     42      40.4120      0.00000
     43      40.6111      0.00000
     44      40.6111      0.00000
     45      41.2138      0.00000
     46      41.2138      0.00000
     47      41.4217      0.00000
     48      41.5387      0.00000

 k-point     3 :       0.2500    0.0000    0.0000
  band No.  band energies     occupation 
      1      -2.5644      2.00000
      2       1.8756      2.00000
      3       5.6037      2.00000
      4       5.6037      2.00000
      5       6.9532      2.00000
      6       6.9532      2.00000
      7       9.7740      0.00000
      8       9.7740      0.00000
      9      10.6016      0.00000
     10      11.2962      0.00000
     11      11.2962      0.00000
     12      13.8410      0.00000
     13      14.0903      0.00000
     14      14.0903      0.00000
     15      17.6052      0.00000
     16      17.9398      0.00000
     17      17.9398      0.00000
     18      18.1643      0.00000
     19      18.1643      0.00000
     20      18.1926      0.00000
     21      20.2465      0.00000
     22      20.2465      0.00000
     23      20.9789      0.00000
     24      22.6748      0.00000
     25      25.6707      0.00000
     26      25.6707      0.00000
     27      28.0183      0.00000
     28      28.0962      0.00000
     29      30.2821      0.00000
     30      30.2821      0.00000
     31      30.7836      0.00000
     32      30.7836      0.00000
     33      31.3709      0.00000
     34      31.8547      0.00000
     35      33.3331      0.00000
     36      33.3331      0.00000
     37      33.3932      0.00000
     38      33.3932      0.00000
     39      35.1210      0.00000
     40      35.1210      0.00000
     41      37.1304      0.00000
     42      38.4033      0.00000
     43      40.0796      0.00000
     44      40.0796      0.00000
     45      40.3988      0.00000
     46      40.3988      0.00000
     47      41.4519      0.00000
     48      41.7659      0.00000

 k-point     4 :       0.3750    0.0000    0.0000
  band No.  band energies     occupation 
      1      -1.8603      2.00000
      2       0.3681      2.00000
      3       6.2533      2.00000
      4       6.2533      2.00000
      5       7.5989      2.00000
      6       7.5989      2.00000
      7       8.3379      0.00000
      8       8.3379      0.00000
      9       9.9462      0.00000
     10       9.9462      0.00000
     11      13.3301      0.00000
     12      14.5367      0.00000
     13      14.6928      0.00000
     14      14.6928      0.00000
     15      16.6209      0.00000
     16      16.6209      0.00000
     17      16.7355      0.00000
     18      18.2212      0.00000
     19      19.4158      0.00000
     20      19.9973      0.00000
     21      20.8983      0.00000
     22      20.8983      0.00000
     23      22.6068      0.00000
     24      22.6068      0.00000
     25      27.0216      0.00000
     26      27.0216      0.00000
     27      27.8890      0.00000
     28      27.8890      0.00000
     29      28.3111      0.00000
     30      28.3111      0.00000
     31      28.6610      0.00000
     32      30.6368      0.00000
     33      30.9639      0.00000
     34      31.8699      0.00000
     35      31.8699      0.00000
     36      32.8283      0.00000
     37      34.2574      0.00000
     38      34.2574      0.00000
     39      35.2004      0.00000
     40      35.2004      0.00000
     41      36.4000      0.00000
     42      37.6699      0.00000
     43      37.8701      0.00000
     44      37.8701      0.00000
     45      39.1936      0.00000
     46      40.0079      0.00000
     47      40.0079      0.00000
     48      42.1322      0.00000

 k-point     5 :       0.5000    0.0000    0.0000
  band No.  band energies     occupation 
      1      -0.8807      2.00000
      2      -0.8807      2.00000
      3       7.1643      2.00000
      4       7.1643      2.00000
      5       7.1643      2.00000
      6       7.1643      2.00000
      7       8.1803      0.38725
      8       8.1803      0.38725
      9       9.1226      0.00000
     10       9.1226      0.00000
     11      15.5081      0.00000
     12      15.5081      0.00000
     13      15.5372      0.00000
     14      15.5372      0.00000
     15      15.5372      0.00000
     16      15.5372      0.00000
     17      16.2823      0.00000
     18      16.2823      0.00000
     19      19.0393      0.00000
     20      19.0393      0.00000
     21      23.8623      0.00000
     22      23.8623      0.00000
     23      23.8623      0.00000
     24      23.8623      0.00000
     25      24.4020      0.00000
     26      24.4020      0.00000
     27      26.4575      0.00000
     28      26.4575      0.00000
     29      29.5458      0.00000
     30      29.5458      0.00000
     31      30.0201      0.00000
     32      30.0201      0.00000
     33      30.0201      0.00000
     34      30.0201      0.00000
     35      34.1682      0.00000
     36      34.1682      0.00000
     37      34.5334      0.00000
     38      34.5334      0.00000
     39      35.2319      0.00000
     40      35.2319      0.00000
     41      35.7367      0.00000
     42      35.7367      0.00000
     43      35.7367      0.00000
     44      35.7367      0.00000
     45      40.0379      0.00000
     46      40.0379      0.00000
     47      40.9090      0.00000
     48      40.9090      0.00000

 k-point     6 :       0.1250    0.1250    0.0000
  band No.  band energies     occupation 
      1      -2.8470      2.00000
      2       3.7452      2.00000
      3       3.7452      2.00000
      4       5.3440      2.00000
      5       6.6823      2.00000
      6       8.2606      0.00172
      7       8.2606      0.00172
      8      10.0879      0.00000
      9      11.6030      0.00000
     10      11.6030      0.00000
     11      12.8739      0.00000
     12      12.8739      0.00000
     13      13.8512      0.00000
     14      15.2077      0.00000
     15      15.8088      0.00000
     16      15.8088      0.00000
     17      17.7911      0.00000
     18      18.2895      0.00000
     19      18.2895      0.00000
     20      18.5312      0.00000
     21      19.3920      0.00000
     22      20.9471      0.00000
     23      22.3070      0.00000
     24      23.1701      0.00000
     25      23.8212      0.00000
     26      25.5200      0.00000
     27      26.5681      0.00000
     28      27.0213      0.00000
     29      30.1051      0.00000
     30      31.6503      0.00000
     31      31.6503      0.00000
     32      32.2167      0.00000
     33      33.0021      0.00000
     34      33.2195      0.00000
     35      33.6626      0.00000
     36      33.9215      0.00000
     37      33.9215      0.00000
     38      34.4570      0.00000
     39      34.5426      0.00000
     40      34.5426      0.00000
     41      35.2060      0.00000
     42      39.0428      0.00000
     43      39.4872      0.00000
     44      39.4872      0.00000
     45      41.3331      0.00000
     46      41.3331      0.00000
     47      41.5892      0.00000
     48      41.5892      0.00000

 k-point     7 :       0.2500    0.1250    0.0000
  band No.  band energies     occupation 
      1      -2.4233      2.00000
      2       2.0122      2.00000
      3       4.1476      2.00000
      4       5.7334      2.00000
      5       7.0673      2.00000
      6       8.4535      0.00000
      7       8.6439      0.00000
      8       9.9046      0.00000
      9      10.7218      0.00000
     10      11.4355      0.00000
     11      11.9958      0.00000
     12      12.8373      0.00000
     13      13.2552      0.00000
     14      16.1448      0.00000
     15      16.1950      0.00000
     16      17.1062      0.00000
     17      17.1130      0.00000
     18      18.2922      0.00000
     19      18.6563      0.00000
     20      20.1435      0.00000
     21      20.3612      0.00000
     22      21.5590      0.00000
     23      21.7934      0.00000
     24      22.8374      0.00000
     25      24.7266      0.00000
     26      25.4072      0.00000
     27      26.7481      0.00000
     28      28.8753      0.00000
     29      29.2948      0.00000
     30      30.2466      0.00000
     31      30.3652      0.00000
     32      30.6145      0.00000
     33      30.7124      0.00000
     34      32.0970      0.00000
     35      33.3171      0.00000
     36      33.5654      0.00000
     37      33.6546      0.00000
     38      33.6814      0.00000
     39      34.5359      0.00000
     40      35.4761      0.00000
     41      37.2987      0.00000
     42      37.7092      0.00000
     43      38.0156      0.00000
     44      38.6978      0.00000
     45      39.4216      0.00000
     46      41.1821      0.00000
     47      41.3101      0.00000
     48      41.7820      0.00000

 k-point     8 :       0.3750    0.1250    0.0000
  band No.  band energies     occupation 
      1      -1.7199      2.00000
      2       0.5064      2.00000
      3       4.8154      2.00000
      4       6.3834      2.00000
      5       6.8892      2.00000
      6       7.8625      2.00000
      7       8.4683      0.00000
      8       9.1828      0.00000
      9      10.1760      0.00000
     10      11.4996      0.00000
     11      12.6493      0.00000
     12      13.3709      0.00000
     13      13.9521      0.00000
     14      14.7287      0.00000
     15      15.8001      0.00000
     16      16.8369      0.00000
     17      18.8572      0.00000
     18      19.2490      0.00000
     19      19.5272      0.00000
     20      19.7439      0.00000
     21      20.9767      0.00000
     22      21.0243      0.00000
     23      22.6967      0.00000
     24      23.9543      0.00000
     25      25.8269      0.00000
     26      26.8232      0.00000
     27      27.0744      0.00000
     28      27.1317      0.00000
     29      28.2390      0.00000
     30      28.3334      0.00000
     31      28.9466      0.00000
     32      29.6065      0.00000
     33      31.6127      0.00000
     34      31.7414      0.00000
     35      31.7646      0.00000
     36      32.4249      0.00000
     37      33.9647      0.00000
     38      34.4532      0.00000
     39      34.6873      0.00000
     40      34.9221      0.00000
     41      36.5774      0.00000
     42      36.7762      0.00000
     43      37.8380      0.00000
     44      38.3665      0.00000
     45      39.5957      0.00000
     46      39.7716      0.00000
     47      40.4228      0.00000
     48      40.9675      0.00000

 k-point     9 :       0.5000    0.1250    0.0000
  band No.  band energies     occupation 
      1      -0.7413      2.00000
      2      -0.7413      2.00000
      3       5.7429      2.00000
      4       5.7429      2.00000
      5       7.2945      2.00000
      6       7.2945      2.00000
      7       8.7120      0.00000
      8       8.7120      0.00000
      9      10.3881      0.00000
     10      10.3881      0.00000
[...]
     31      28.3613      0.00000
     32      28.3613      0.00000
     33      28.6656      0.00000
     34      28.6656      0.00000
     35      30.8472      0.00000
     36      30.8472      0.00000
     37      31.1223      0.00000
     38      31.1223      0.00000
     39      31.7307      0.00000
     40      31.7307      0.00000
     41      37.0753      0.00000
     42      37.0753      0.00000
     43      39.1560      0.00000
     44      39.1560      0.00000
     45      40.0879      0.00000
     46      40.0879      0.00000
     47      40.6959      0.00000
     48      40.6959      0.00000

 k-point    29 :       0.3750    0.3750    0.2500
  band No.  band energies     occupation 
      1      -0.0460      2.00000
      2       2.1544      2.00000
      3       2.1544      2.00000
      4       4.1994      2.00000
      5       4.4531      2.00000
      6       6.4711      2.00000
      7       6.4711      2.00000
      8       8.5913      0.00000
      9      12.9640      0.00000
     10      14.7955      0.00000
     11      14.7955      0.00000
     12      15.1561      0.00000
     13      15.1561      0.00000
     14      16.2843      0.00000
     15      16.8690      0.00000
     16      18.1133      0.00000
     17      19.3445      0.00000
     18      19.3445      0.00000
     19      20.0699      0.00000
     20      20.2947      0.00000
     21      21.7340      0.00000
     22      23.1091      0.00000
     23      23.1091      0.00000
     24      23.1210      0.00000
     25      24.1159      0.00000
     26      26.3732      0.00000
     27      26.5347      0.00000
     28      26.5347      0.00000
     29      26.6304      0.00000
     30      28.0424      0.00000
     31      28.0972      0.00000
     32      28.0972      0.00000
     33      28.6718      0.00000
     34      28.6718      0.00000
     35      29.2136      0.00000
     36      29.8757      0.00000
     37      29.9940      0.00000
     38      31.5088      0.00000
     39      32.9399      0.00000
     40      32.9399      0.00000
     41      36.1329      0.00000
     42      37.6828      0.00000
     43      38.6476      0.00000
     44      38.6476      0.00000
     45      40.4451      0.00000
     46      40.4451      0.00000
     47      41.1543      0.00000
     48      41.5112      0.00000

 k-point    30 :       0.5000    0.3750    0.2500
  band No.  band energies     occupation 
      1       0.9215      2.00000
      2       0.9215      2.00000
      3       3.1051      2.00000
      4       3.1051      2.00000
      5       5.2726      2.00000
      6       5.2726      2.00000
      7       7.4022      2.00000
      8       7.4022      2.00000
      9      13.8445      0.00000
     10      13.8445      0.00000
     11      15.8001      0.00000
     12      15.8001      0.00000
     13      15.8459      0.00000
     14      15.8459      0.00000
     15      17.8231      0.00000
     16      17.8231      0.00000
     17      20.0307      0.00000
     18      20.0307      0.00000
     19      20.2623      0.00000
     20      20.2623      0.00000
     21      22.0092      0.00000
     22      22.0092      0.00000
     23      22.0762      0.00000
     24      22.0762      0.00000
     25      24.8636      0.00000
     26      24.8636      0.00000
     27      26.6463      0.00000
     28      26.6463      0.00000
     29      26.9110      0.00000
     30      26.9110      0.00000
     31      28.1788      0.00000
     32      28.1788      0.00000
     33      28.7486      0.00000
     34      28.7486      0.00000
     35      29.7262      0.00000
     36      29.7262      0.00000
     37      31.4860      0.00000
     38      31.4860      0.00000
     39      31.7619      0.00000
     40      31.7619      0.00000
     41      37.5492      0.00000
     42      37.5492      0.00000
     43      38.1351      0.00000
     44      38.1351      0.00000
     45      39.8615      0.00000
     46      39.8615      0.00000
     47      41.2496      0.00000
     48      41.2496      0.00000

 k-point    31 :       0.5000    0.5000    0.2500
  band No.  band energies     occupation 
      1       1.8824      2.00000
      2       1.8824      2.00000
      3       1.8824      2.00000
      4       1.8824      2.00000
      5       6.2068      2.00000
      6       6.2068      2.00000
      7       6.2068      2.00000
      8       6.2068      2.00000
      9      14.7319      0.00000
     10      14.7319      0.00000
     11      14.7319      0.00000
     12      14.7319      0.00000
     13      17.9917      0.00000
     14      17.9917      0.00000
     15      17.9917      0.00000
     16      17.9917      0.00000
     17      19.8592      0.00000
     18      19.8592      0.00000
     19      19.8592      0.00000
     20      19.8592      0.00000
     21      21.9172      0.00000
     22      21.9172      0.00000
     23      21.9172      0.00000
     24      21.9172      0.00000
     25      24.7365      0.00000
     26      24.7365      0.00000
     27      24.7365      0.00000
     28      24.7365      0.00000
     29      27.6815      0.00000
     30      27.6815      0.00000
     31      27.6815      0.00000
     32      27.6815      0.00000
     33      29.6089      0.00000
     34      29.6089      0.00000
     35      29.6089      0.00000
     36      29.6089      0.00000
     37      31.5923      0.00000
     38      31.5923      0.00000
     39      31.5923      0.00000
     40      31.5923      0.00000
     41      37.6057      0.00000
     42      37.6057      0.00000
     43      37.6057      0.00000
     44      37.6057      0.00000
     45      40.4338      0.00000
     46      40.4338      0.00000
     47      40.4338      0.00000
     48      40.4338      0.00000

 k-point    32 :       0.3750    0.3750    0.3750
  band No.  band energies     occupation 
      1       0.6460      2.00000
      2       2.8342      2.00000
      3       2.8342      2.00000
      4       2.8342      2.00000
      5       5.0107      2.00000
      6       5.0107      2.00000
      7       5.0107      2.00000
      8       7.1449      2.00000
      9      15.6149      0.00000
     10      15.6149      0.00000
     11      15.6149      0.00000
     12      16.8937      0.00000
     13      16.8937      0.00000
     14      16.8937      0.00000
     15      18.6727      0.00000
     16      18.6727      0.00000
     17      18.6727      0.00000
     18      18.8434      0.00000
     19      18.8434      0.00000
     20      20.7982      0.00000
     21      20.7982      0.00000
     22      22.4564      0.00000
     23      22.7660      0.00000
     24      22.7660      0.00000
     25      22.7660      0.00000
     26      24.7272      0.00000
     27      25.5569      0.00000
     28      25.5569      0.00000
     29      25.5569      0.00000
     30      26.7186      0.00000
     31      26.7186      0.00000
     32      26.7186      0.00000
     33      29.7288      0.00000
     34      29.7288      0.00000
     35      29.7288      0.00000
     36      30.3937      0.00000
     37      30.3937      0.00000
     38      33.0023      0.00000
     39      33.0023      0.00000
     40      33.0023      0.00000
     41      37.0063      0.00000
     42      39.2906      0.00000
     43      39.2906      0.00000
     44      39.2906      0.00000
     45      39.4082      0.00000
     46      39.4082      0.00000
     47      39.4082      0.00000
     48      41.1192      0.00000

 k-point    33 :       0.5000    0.3750    0.3750
  band No.  band energies     occupation 
      1       1.6087      2.00000
      2       1.6087      2.00000
      3       3.6757      2.00000
      4       3.6757      2.00000
      5       3.9065      2.00000
      6       3.9065      2.00000
      7       5.9470      2.00000
      8       5.9470      2.00000
      9      16.3137      0.00000
     10      16.3137      0.00000
     11      16.5626      0.00000
     12      16.5626      0.00000
     13      17.7478      0.00000
     14      17.7478      0.00000
     15      18.3696      0.00000
     16      18.3696      0.00000
     17      19.2325      0.00000
     18      19.2325      0.00000
     19      20.5582      0.00000
     20      20.5582      0.00000
     21      20.8388      0.00000
     22      20.8388      0.00000
     23      21.6594      0.00000
     24      21.6594      0.00000
     25      23.8077      0.00000
     26      23.8077      0.00000
     27      24.8813      0.00000
     28      24.8813      0.00000
     29      25.3502      0.00000
     30      25.3502      0.00000
     31      25.9698      0.00000
     32      25.9698      0.00000
     33      30.1771      0.00000
     34      30.1771      0.00000
     35      31.3052      0.00000
     36      31.3052      0.00000
     37      32.2091      0.00000
     38      32.2091      0.00000
     39      32.4841      0.00000
     40      32.4841      0.00000
     41      38.7228      0.00000
     42      38.7228      0.00000
     43      38.7251      0.00000
     44      38.7251      0.00000
     45      39.3539      0.00000
     46      39.3539      0.00000
     47      39.6723      0.00000
     48      39.6723      0.00000

 k-point    34 :       0.5000    0.5000    0.3750
  band No.  band energies     occupation 
      1       2.5638      2.00000
      2       2.5638      2.00000
      3       2.5638      2.00000
      4       2.5638      2.00000
      5       4.7425      2.00000
      6       4.7425      2.00000
      7       4.7425      2.00000
      8       4.7425      2.00000
      9      17.2510      0.00000
     10      17.2510      0.00000
     11      17.2510      0.00000
     12      17.2510      0.00000
     13      18.6028      0.00000
     14      18.6028      0.00000
     15      18.6028      0.00000
     16      18.6028      0.00000
     17      20.1284      0.00000
     18      20.1284      0.00000
     19      20.1284      0.00000
     20      20.1284      0.00000
     21      20.5662      0.00000
     22      20.5662      0.00000
     23      20.5662      0.00000
     24      20.5662      0.00000
     25      23.6409      0.00000
     26      23.6409      0.00000
     27      23.6409      0.00000
     28      23.6409      0.00000
     29      24.7916      0.00000
     30      24.7916      0.00000
     31      24.7916      0.00000
     32      24.7916      0.00000
     33      31.7346      0.00000
     34      31.7346      0.00000
     35      31.7346      0.00000
     36      31.7346      0.00000
     37      32.5127      0.00000
     38      32.5127      0.00000
     39      32.5127      0.00000
     40      32.5127      0.00000
     41      38.4837      0.00000
     42      38.4837      0.00000
     43      38.4837      0.00000
     44      38.4837      0.00000
     45      39.8691      0.00000
     46      39.8691      0.00000
     47      39.8691      0.00000
     48      39.8691      0.00000

 k-point    35 :       0.5000    0.5000    0.5000
  band No.  band energies     occupation 
      1       3.4136      2.00000
      2       3.4136      2.00000
      3       3.4136      2.00000
      4       3.4136      2.00000
      5       3.6303      2.00000
      6       3.6303      2.00000
      7       3.6303      2.00000
      8       3.6303      2.00000
      9      19.4294      0.00000
     10      19.4294      0.00000
     11      19.4294      0.00000
     12      19.4294      0.00000
     13      19.4294      0.00000
     14      19.4294      0.00000
     15      19.4294      0.00000
     16      19.4294      0.00000
     17      19.4966      0.00000
     18      19.4966      0.00000
     19      19.4966      0.00000
     20      19.4966      0.00000
     21      19.4966      0.00000
     22      19.4966      0.00000
     23      19.4966      0.00000
     24      19.4966      0.00000
     25      23.1434      0.00000
     26      23.1434      0.00000
     27      23.1434      0.00000
     28      23.1434      0.00000
     29      23.3232      0.00000
     30      23.3232      0.00000
     31      23.3232      0.00000
     32      23.3232      0.00000
     33      32.8735      0.00000
     34      32.8735      0.00000
     35      32.8735      0.00000
     36      32.8735      0.00000
     37      32.8735      0.00000
     38      32.8735      0.00000
     39      32.8735      0.00000
     40      32.8735      0.00000
     41      38.8778      0.00000
     42      38.8778      0.00000
     43      38.8778      0.00000
     44      38.8778      0.00000
     45      38.8778      0.00000
     46      38.8778      0.00000
     47      38.8778      0.00000
     48      38.8778      0.00000


--------------------------------------------------------------------------------------------------------


 soft charge-density along one line, spin component           1
         0         1         2         3         4         5         6         7         8         9
 total charge-density along one line
 
 pseudopotential strength for first ion, spin component:           1
  8.444  14.391  -0.000  -0.000  -0.000  -0.000  -0.000  -0.000
 14.391  24.527  -0.000  -0.000  -0.000  -0.000  -0.000  -0.000
 -0.000  -0.000   1.988  -0.000   0.000   5.732  -0.000   0.000
 -0.000  -0.000  -0.000   1.988   0.000  -0.000   5.732   0.000
 -0.000  -0.000   0.000   0.000   1.988   0.000   0.000   5.732
 -0.000  -0.000   5.732  -0.000   0.000  16.438  -0.000   0.000
 -0.000  -0.000  -0.000   5.732   0.000  -0.000  16.438   0.000
 -0.000  -0.000   0.000   0.000   5.732   0.000   0.000  16.438
 total augmentation occupancy for first ion, spin component:           1
  3.393  -0.840   0.000   0.000   0.000   0.000  -0.000   0.000
 -0.840   0.278   0.000  -0.000   0.000   0.000   0.000  -0.000
  0.000   0.000   1.170   0.000   0.000  -0.085  -0.000  -0.000
  0.000  -0.000   0.000   1.170   0.000  -0.000  -0.085  -0.000
  0.000   0.000   0.000   0.000   1.170  -0.000  -0.000  -0.085
  0.000   0.000  -0.085  -0.000  -0.000   0.007   0.000   0.000
 -0.000   0.000  -0.000  -0.085  -0.000   0.000   0.007   0.000
  0.000  -0.000  -0.000  -0.000  -0.085   0.000   0.000   0.007


------------------------ aborting loop because EDIFF is reached ----------------------------------------


    CHARGE:  cpu time      0.0043: real time      0.0043
    FORLOC:  cpu time      0.0001: real time      0.0002
    FORNL :  cpu time      0.0078: real time      0.0079
    STRESS:  cpu time      0.0642: real time      0.0642
    FORCOR:  cpu time      0.0017: real time      0.0019
    FORHAR:  cpu time      0.0005: real time      0.0006
    MIXING:  cpu time      0.0005: real time      0.0005
    OFIELD:  cpu time      0.0001: real time      0.0001

  FORCE on cell =-STRESS in cart. coord.  units (eV):
  Direction    XX          YY          ZZ          XY          YZ          ZX
  --------------------------------------------------------------------------------------
  Alpha Z    -0.81488    -0.81488    -0.81488
  Ewald     -98.04599   -98.04599   -98.04599    -0.00000     0.00000     0.00000
  Hartree     0.14079     0.14079     0.14079    -0.00000    -0.00000    -0.00000
  E(xc)     -34.28749   -34.28749   -34.28749     0.00000     0.00000     0.00000
  Local       1.32517     1.32517     1.32517     0.00000     0.00000     0.00000
  n-local    74.64101    75.65454    77.22421     0.11761     0.76017     0.26112
  augment    -4.11224    -4.11224    -4.11224     0.00000     0.00000    -0.00000
  Kinetic    57.12182    58.51783    64.45119     0.37189    -6.79297    -1.53065
  Fock        0.00000     0.00000     0.00000     0.00000     0.00000     0.00000
  -------------------------------------------------------------------------------------
  Total       0.07557     0.07557     0.07557     0.00000     0.00000     0.00000
  in kB       1.83581     1.83581     1.83581     0.00000     0.00000     0.00000
  external pressure =        1.84 kB  Pullay stress =        0.00 kB


 VOLUME and BASIS-vectors are now :
 -----------------------------------------------------------------------------
  energy-cutoff  :      312.39
  volume of cell :       65.95
      direct lattice vectors                 reciprocal lattice vectors
     4.040210000  0.000000000  0.000000000     0.247511887 -0.000000000  0.000000000
     0.000000000  4.040210000  0.000000000     0.000000000  0.247511887  0.000000000
     0.000000000  0.000000000  4.040210000    -0.000000000 -0.000000000  0.247511887

  length of vectors
     4.040210000  4.040210000  4.040210000     0.247511887  0.247511887  0.247511887


 FORCES acting on ions
    electron-ion (+dipol)            ewald-force                    non-local-force                 convergence-correction
 -----------------------------------------------------------------------------------------------
   0.330E-16 0.102E-14 0.254E-15   -.245E-14 -.444E-15 -.561E-15   0.137E-25 0.412E-26 -.230E-25   -.386E-15 0.677E-16 0.250E-16
   0.115E-14 -.150E-14 -.137E-14   -.241E-14 0.662E-15 0.373E-15   0.246E-26 -.787E-26 -.176E-25   -.366E-15 -.488E-16 -.295E-16
   -.442E-14 0.218E-14 0.289E-13   0.232E-14 -.649E-15 0.359E-15   -.108E-25 -.778E-26 -.960E-26   0.382E-15 0.247E-16 -.269E-16
   -.470E-14 -.118E-14 -.115E-13   0.235E-14 0.457E-15 -.478E-16   0.213E-25 0.601E-26 0.481E-26   0.347E-15 -.344E-16 0.301E-16
 -----------------------------------------------------------------------------------------------
   -.794E-14 0.519E-15 0.163E-13   -.195E-15 0.245E-16 0.124E-15   0.267E-25 -.551E-26 -.454E-25   -.224E-16 0.914E-17 -.124E-17
 
 
 POSITION                                       TOTAL-FORCE (eV/Angst)
 -----------------------------------------------------------------------------------
      0.00000      0.00000      0.00000         0.000000     -0.000000      0.000000
      0.00000      2.02011      2.02011        -0.000000     -0.000000     -0.000000
      2.02011      0.00000      2.02011        -0.000000      0.000000     -0.000000
      2.02011      2.02011      0.00000         0.000000      0.000000      0.000000
 -----------------------------------------------------------------------------------
    total drift:                               -0.000000      0.000000      0.000000


--------------------------------------------------------------------------------------------------------



  FREE ENERGIE OF THE ION-ELECTRON SYSTEM (eV)
  ---------------------------------------------------
  free  energy   TOTEN  =       -14.98811595 eV

  energy  without entropy=      -14.98491169  energy(sigma->0) =      -14.98651382
 


--------------------------------------------------------------------------------------------------------


    POTLOK:  cpu time      0.0030: real time      0.0030


--------------------------------------------------------------------------------------------------------


 writing wavefunctions
     LOOP+:  cpu time     16.3897: real time     16.4106
    4ORBIT:  cpu time      0.0000: real time      0.0000

 total amount of memory used by VASP MPI-rank0    32892. kBytes
=======================================================================

   base      :      30000. kBytes
   nonl-proj :       1990. kBytes
   fftplans  :         78. kBytes
   grid      :        302. kBytes
   one-center:         12. kBytes
   wavefun   :        510. kBytes
 
  
  
 General timing and accounting informations for this job:
 ========================================================
  
                  Total CPU time used (sec):       16.917
                            User time (sec):       16.481
                          System time (sec):        0.436
                         Elapsed time (sec):       17.180
  
                   Maximum memory used (kb):      190564.
                   Average memory used (kb):          N/A
  
                          Minor page faults:        20130
                          Major page faults:            0
                 Voluntary context switches:         4544
