   6   6   0   0
  0.3702354E+02  0.4588660E-09  0.4588660E-09  0.1218223E-08  0.5000000E-15
  1.000000000000000E-004
  CAR 
 Bi                                      
     20.17815907    -20.32767165  301      5.82345435      1.00000000
    -20.328  0.0000E+00  0.0000E+00
    -20.193  0.0000E+00  0.0000E+00
    -20.058  0.0000E+00  0.0000E+00
    -19.923  0.0000E+00  0.0000E+00
    -19.788  0.0000E+00  0.0000E+00
    -19.653  0.0000E+00  0.0000E+00
    -19.518  0.0000E+00  0.0000E+00
    -19.383  0.0000E+00  0.0000E+00
    -19.248  0.0000E+00  0.0000E+00
    -19.112  0.0000E+00  0.0000E+00
    -18.977  0.0000E+00  0.0000E+00
    -18.842  0.0000E+00  0.0000E+00
    -18.707  0.2998E-08  0.4047E-09
    -18.572  0.2341E+00  0.3160E-01
    -18.437  0.1036E+03  0.1402E+02
    -18.302  0.7390E+02  0.2400E+02
    -18.167  0.3499E-01  0.2400E+02
    -18.032  0.5009E-10  0.2400E+02
    -17.897  0.0000E+00  0.2400E+02
    -17.762  0.0000E+00  0.2400E+02
    -17.627  0.0000E+00  0.2400E+02
    -17.492  0.0000E+00  0.2400E+02
    -17.357  0.0000E+00  0.2400E+02
    -17.222  0.0000E+00  0.2400E+02
    -17.087  0.0000E+00  0.2400E+02
    -16.952  0.0000E+00  0.2400E+02
    -16.817  0.0000E+00  0.2400E+02
    -16.682  0.0000E+00  0.2400E+02
    -16.547  0.0000E+00  0.2400E+02
    -16.412  0.0000E+00  0.2400E+02
    -16.277  0.0000E+00  0.2400E+02
    -16.142  0.0000E+00  0.2400E+02
    -16.007  0.0000E+00  0.2400E+02
    -15.872  0.8608E-15  0.2400E+02
    -15.737  0.7619E-04  0.2400E+02
    -15.602  0.9961E+01  0.2534E+02
    -15.467  0.1313E+03  0.4307E+02
    -15.332  0.1204E+03  0.5933E+02
    -15.197  0.4983E+01  0.6000E+02
    -15.062  0.1432E-04  0.6000E+02
    -14.927  0.0000E+00  0.6000E+02
    -14.792  0.0000E+00  0.6000E+02
    -14.657  0.0000E+00  0.6000E+02
    -14.522  0.0000E+00  0.6000E+02
    -14.387  0.0000E+00  0.6000E+02
    -14.252  0.0000E+00  0.6000E+02
    -14.117  0.0000E+00  0.6000E+02
    -13.982  0.0000E+00  0.6000E+02
    -13.847  0.0000E+00  0.6000E+02
    -13.712  0.0000E+00  0.6000E+02
    -13.577  0.0000E+00  0.6000E+02
    -13.442  0.0000E+00  0.6000E+02
    -13.307  0.0000E+00  0.6000E+02
    -13.172  0.0000E+00  0.6000E+02
    -13.037  0.0000E+00  0.6000E+02
    -12.902  0.0000E+00  0.6000E+02
    -12.767  0.0000E+00  0.6000E+02
    -12.632  0.0000E+00  0.6000E+02
    -12.497  0.0000E+00  0.6000E+02
    -12.362  0.0000E+00  0.6000E+02
    -12.227  0.0000E+00  0.6000E+02
    -12.091  0.0000E+00  0.6000E+02
    -11.956  0.0000E+00  0.6000E+02
    -11.821  0.0000E+00  0.6000E+02
    -11.686  0.0000E+00  0.6000E+02
    -11.551  0.0000E+00  0.6000E+02
    -11.416  0.0000E+00  0.6000E+02
    -11.281  0.0000E+00  0.6000E+02
    -11.146  0.0000E+00  0.6000E+02
    -11.011  0.0000E+00  0.6000E+02
    -10.876  0.0000E+00  0.6000E+02
    -10.741  0.0000E+00  0.6000E+02
    -10.606  0.0000E+00  0.6000E+02
    -10.471  0.0000E+00  0.6000E+02
    -10.336  0.0000E+00  0.6000E+02
    -10.201  0.0000E+00  0.6000E+02
    -10.066  0.0000E+00  0.6000E+02
     -9.931  0.0000E+00  0.6000E+02
     -9.796  0.0000E+00  0.6000E+02
     -9.661  0.0000E+00  0.6000E+02
     -9.526  0.0000E+00  0.6000E+02
     -9.391  0.0000E+00  0.6000E+02
     -9.256  0.0000E+00  0.6000E+02
     -9.121  0.0000E+00  0.6000E+02
     -8.986  0.0000E+00  0.6000E+02
     -8.851  0.0000E+00  0.6000E+02
     -8.716  0.0000E+00  0.6000E+02
     -8.581  0.0000E+00  0.6000E+02
     -8.446  0.0000E+00  0.6000E+02
     -8.311  0.0000E+00  0.6000E+02
     -8.176  0.0000E+00  0.6000E+02
     -8.041  0.0000E+00  0.6000E+02
     -7.906  0.0000E+00  0.6000E+02
     -7.771  0.0000E+00  0.6000E+02
     -7.636  0.0000E+00  0.6000E+02
     -7.501  0.0000E+00  0.6000E+02
     -7.366  0.0000E+00  0.6000E+02
     -7.231  0.0000E+00  0.6000E+02
     -7.096  0.9126E-07  0.6000E+02
     -6.961  0.1526E-01  0.6000E+02
     -6.826  0.2911E+00  0.6004E+02
     -6.691  0.1044E+01  0.6018E+02
     -6.556  0.8754E+00  0.6030E+02
     -6.421  0.1800E+01  0.6054E+02
     -6.286  0.1821E+01  0.6079E+02
     -6.151  0.1354E+01  0.6097E+02
     -6.016  0.2893E+01  0.6136E+02
     -5.881  0.2766E+01  0.6174E+02
     -5.746  0.3439E+01  0.6220E+02
     -5.611  0.2513E+01  0.6254E+02
     -5.476  0.3515E+01  0.6301E+02
     -5.341  0.5138E+01  0.6371E+02
     -5.205  0.5673E+01  0.6447E+02
     -5.070  0.3981E+01  0.6501E+02
     -4.935  0.2988E+01  0.6542E+02
     -4.800  0.4226E+01  0.6599E+02
     -4.665  0.1045E+00  0.6600E+02
     -4.530  0.4440E+00  0.6606E+02
     -4.395  0.1973E+01  0.6633E+02
     -4.260  0.3673E+01  0.6682E+02
     -4.125  0.3721E+01  0.6732E+02
     -3.990  0.3590E+01  0.6781E+02
     -3.855  0.6043E+01  0.6863E+02
     -3.720  0.5199E+01  0.6933E+02
     -3.585  0.3757E+01  0.6983E+02
     -3.450  0.2315E+01  0.7015E+02
     -3.315  0.2768E+01  0.7052E+02
     -3.180  0.2891E+01  0.7091E+02
     -3.045  0.1716E+01  0.7114E+02
     -2.910  0.7288E+00  0.7124E+02
     -2.775  0.1087E+01  0.7139E+02
     -2.640  0.1453E+01  0.7158E+02
     -2.505  0.9798E+00  0.7172E+02
     -2.370  0.6193E+00  0.7180E+02
     -2.235  0.3636E+00  0.7185E+02
     -2.100  0.4566E+00  0.7191E+02
     -1.965  0.5176E+00  0.7198E+02
     -1.830  0.8001E-01  0.7199E+02
     -1.695  0.6142E-01  0.7200E+02
     -1.560  0.1651E-03  0.7200E+02
     -1.425  0.2663E-11  0.7200E+02
     -1.290  0.0000E+00  0.7200E+02
     -1.155  0.0000E+00  0.7200E+02
     -1.020  0.0000E+00  0.7200E+02
     -0.885  0.0000E+00  0.7200E+02
     -0.750  0.0000E+00  0.7200E+02
     -0.615  0.0000E+00  0.7200E+02
     -0.480  0.0000E+00  0.7200E+02
     -0.345  0.0000E+00  0.7200E+02
     -0.210  0.0000E+00  0.7200E+02
     -0.075  0.0000E+00  0.7200E+02
      0.060  0.0000E+00  0.7200E+02
      0.195  0.0000E+00  0.7200E+02
      0.330  0.0000E+00  0.7200E+02
      0.465  0.0000E+00  0.7200E+02
      0.600  0.0000E+00  0.7200E+02
      0.735  0.0000E+00  0.7200E+02
      0.870  0.0000E+00  0.7200E+02
      1.005  0.2259E-13  0.7200E+02
      1.140  0.3138E-04  0.7200E+02
      1.275  0.1213E+00  0.7202E+02
      1.410  0.1266E+01  0.7219E+02
      1.545  0.2045E+01  0.7246E+02
      1.680  0.1693E+01  0.7269E+02
      1.816  0.3630E+01  0.7318E+02
      1.951  0.3200E+01  0.7361E+02
      2.086  0.3414E+01  0.7407E+02
      2.221  0.2455E+01  0.7441E+02
      2.356  0.4594E+01  0.7503E+02
      2.491  0.7341E+01  0.7602E+02
      2.626  0.7101E+01  0.7698E+02
      2.761  0.4743E+01  0.7762E+02
      2.896  0.4222E+01  0.7819E+02
      3.031  0.3849E+01  0.7871E+02
      3.166  0.7538E+01  0.7972E+02
      3.301  0.7061E+01  0.8068E+02
      3.436  0.3299E+01  0.8112E+02
      3.571  0.2063E+01  0.8140E+02
      3.706  0.3616E+01  0.8189E+02
      3.841  0.3461E+01  0.8236E+02
      3.976  0.3857E+01  0.8288E+02
      4.111  0.3703E+01  0.8338E+02
      4.246  0.5020E+01  0.8406E+02
      4.381  0.4213E+01  0.8463E+02
      4.516  0.4516E+01  0.8523E+02
      4.651  0.4122E+01  0.8579E+02
      4.786  0.3613E+01  0.8628E+02
      4.921  0.6053E+01  0.8710E+02
      5.056  0.6116E+01  0.8792E+02
      5.191  0.4963E+01  0.8859E+02
      5.326  0.3694E+01  0.8909E+02
      5.461  0.2729E+01  0.8946E+02
      5.596  0.2722E+01  0.8983E+02
      5.731  0.1143E+01  0.8998E+02
      5.866  0.2960E+00  0.9002E+02
      6.001  0.4768E+00  0.9009E+02
      6.136  0.5318E+00  0.9016E+02
      6.271  0.1761E+01  0.9040E+02
      6.406  0.5095E+01  0.9108E+02
      6.541  0.6686E+01  0.9199E+02
      6.676  0.4234E+01  0.9256E+02
      6.811  0.3475E+01  0.9303E+02
      6.946  0.5491E+01  0.9377E+02
      7.081  0.4333E+01  0.9435E+02
      7.216  0.4127E+01  0.9491E+02
      7.351  0.2209E+01  0.9521E+02
      7.486  0.4100E+01  0.9576E+02
      7.621  0.2597E+01  0.9611E+02
      7.756  0.4067E+01  0.9666E+02
      7.891  0.3579E+01  0.9715E+02
      8.026  0.3678E+01  0.9764E+02
      8.161  0.6101E+01  0.9847E+02
      8.296  0.4707E+01  0.9910E+02
      8.431  0.3793E+01  0.9961E+02
      8.566  0.2825E+01  0.9999E+02
      8.702  0.2578E+01  0.1003E+03
      8.837  0.3642E+01  0.1008E+03
      8.972  0.2879E+01  0.1012E+03
      9.107  0.3267E+01  0.1017E+03
      9.242  0.4532E+01  0.1023E+03
      9.377  0.6069E+01  0.1031E+03
      9.512  0.7649E+01  0.1041E+03
      9.647  0.4574E+01  0.1047E+03
      9.782  0.4133E+01  0.1053E+03
      9.917  0.2844E+01  0.1057E+03
     10.052  0.2094E+01  0.1060E+03
     10.187  0.1375E+01  0.1062E+03
     10.322  0.2263E+01  0.1065E+03
     10.457  0.5116E+01  0.1072E+03
     10.592  0.5595E+01  0.1079E+03
     10.727  0.4306E+01  0.1085E+03
     10.862  0.6063E+01  0.1093E+03
     10.997  0.5769E+01  0.1101E+03
     11.132  0.6619E+01  0.1110E+03
     11.267  0.4977E+01  0.1117E+03
     11.402  0.3349E+01  0.1121E+03
     11.537  0.3572E+01  0.1126E+03
     11.672  0.3007E+01  0.1130E+03
     11.807  0.2732E+01  0.1134E+03
     11.942  0.2438E+01  0.1137E+03
     12.077  0.2776E+01  0.1141E+03
     12.212  0.3517E+01  0.1145E+03
     12.347  0.2926E+01  0.1149E+03
     12.482  0.4621E+01  0.1156E+03
     12.617  0.4779E+01  0.1162E+03
     12.752  0.4262E+01  0.1168E+03
     12.887  0.3914E+01  0.1173E+03
     13.022  0.3358E+01  0.1178E+03
     13.157  0.3806E+01  0.1183E+03
     13.292  0.3610E+01  0.1188E+03
     13.427  0.3893E+01  0.1193E+03
     13.562  0.4301E+01  0.1199E+03
     13.697  0.4517E+01  0.1205E+03
     13.832  0.4893E+01  0.1211E+03
     13.967  0.5040E+01  0.1218E+03
     14.102  0.5534E+01  0.1226E+03
     14.237  0.6059E+01  0.1234E+03
     14.372  0.6445E+01  0.1243E+03
     14.507  0.6609E+01  0.1251E+03
     14.642  0.6208E+01  0.1260E+03
     14.777  0.7533E+01  0.1270E+03
     14.912  0.4217E+01  0.1276E+03
     15.047  0.5819E+01  0.1284E+03
     15.182  0.5906E+01  0.1292E+03
     15.317  0.9485E+01  0.1304E+03
     15.452  0.7681E+01  0.1315E+03
     15.587  0.7071E+01  0.1324E+03
     15.723  0.6345E+01  0.1333E+03
     15.858  0.7113E+01  0.1342E+03
     15.993  0.5634E+01  0.1350E+03
     16.128  0.6970E+01  0.1359E+03
     16.263  0.5348E+01  0.1367E+03
     16.398  0.6535E+01  0.1376E+03
     16.533  0.5891E+01  0.1383E+03
     16.668  0.6493E+01  0.1392E+03
     16.803  0.5133E+01  0.1399E+03
     16.938  0.3778E+01  0.1404E+03
     17.073  0.4951E+01  0.1411E+03
     17.208  0.3930E+01  0.1416E+03
     17.343  0.5148E+01  0.1423E+03
     17.478  0.3038E+01  0.1427E+03
     17.613  0.3213E+01  0.1432E+03
     17.748  0.2690E+01  0.1435E+03
     17.883  0.1500E+01  0.1437E+03
     18.018  0.9354E+00  0.1439E+03
     18.153  0.6753E+00  0.1439E+03
     18.288  0.2946E+00  0.1440E+03
     18.423  0.8176E-01  0.1440E+03
     18.558  0.2380E-03  0.1440E+03
     18.693  0.5985E-11  0.1440E+03
     18.828  0.0000E+00  0.1440E+03
     18.963  0.0000E+00  0.1440E+03
     19.098  0.0000E+00  0.1440E+03
     19.233  0.0000E+00  0.1440E+03
     19.368  0.0000E+00  0.1440E+03
     19.503  0.0000E+00  0.1440E+03
     19.638  0.0000E+00  0.1440E+03
     19.773  0.0000E+00  0.1440E+03
     19.908  0.0000E+00  0.1440E+03
     20.043  0.0000E+00  0.1440E+03
     20.178  0.0000E+00  0.1440E+03
