 vasp.6.4.3 19Mar24 (build Jun 26 2024 13:02:28) complex                        
  
 executed on             LinuxIFC date 2025.08.08  20:00:12
 running   48 mpi-ranks, on    4 nodes
 distrk:  each k-point on   48 cores,    1 groups
 distr:  one band on NCORE=   1 cores,   48 groups


--------------------------------------------------------------------------------------------------------


 INCAR:
   ENCUT = 315.6907
   IBRION = -1
   ISMEAR = 0
   ISYM = 2
   LCHARG = True
   LSORBIT = True
   LWAVE = True
   SAXIS = 0 0 1
   SIGMA = 0.05
   SYSTEM = Bi

 POTCAR:  PAW_PBE Bi_d 06Sep2000                  
 -----------------------------------------------------------------------------
|                                                                             |
|           W    W    AA    RRRRR   N    N  II  N    N   GGGG   !!!           |
|           W    W   A  A   R    R  NN   N  II  NN   N  G    G  !!!           |
|           W    W  A    A  R    R  N N  N  II  N N  N  G       !!!           |
|           W WW W  AAAAAA  RRRRR   N  N N  II  N  N N  G  GGG   !            |
|           WW  WW  A    A  R   R   N   NN  II  N   NN  G    G                |
|           W    W  A    A  R    R  N    N  II  N    N   GGGG   !!!           |
|                                                                             |
|     You use a magnetic or noncollinear calculation, but did not specify     |
|     the initial magnetic moment with the MAGMOM tag. Note that a            |
|     default of 1 will be used for all atoms. This ferromagnetic setup       |
|     may break the symmetry of the crystal, in particular it may rule        |
|     out finding an antiferromagnetic solution. Thence, we recommend         |
|     setting the initial magnetic moment manually or verifying carefully     |
|     that this magnetic setup is desired.                                    |
|                                                                             |
 -----------------------------------------------------------------------------

 -----------------------------------------------------------------------------
|                                                                             |
|           W    W    AA    RRRRR   N    N  II  N    N   GGGG   !!!           |
|           W    W   A  A   R    R  NN   N  II  NN   N  G    G  !!!           |
|           W    W  A    A  R    R  N N  N  II  N N  N  G       !!!           |
|           W WW W  AAAAAA  RRRRR   N  N N  II  N  N N  G  GGG   !            |
|           WW  WW  A    A  R   R   N   NN  II  N   NN  G    G                |
|           W    W  A    A  R    R  N    N  II  N    N   GGGG   !!!           |
|                                                                             |
|     For optimal performance we recommend to set                             |
|       NCORE = 2 up to number-of-cores-per-socket                            |
|     NCORE specifies how many cores store one orbital (NPAR=cpu/NCORE).      |
|     This setting can greatly improve the performance of VASP for DFT.       |
|     The default, NCORE=1 might be grossly inefficient on modern             |
|     multi-core architectures or massively parallel machines. Do your        |
|     own testing! More info at https://www.vasp.at/wiki/index.php/NCORE      |
|     Unfortunately you need to use the default for GW and RPA                |
|     calculations (for HF NCORE is supported but not extensively tested      |
|     yet).                                                                   |
|                                                                             |
 -----------------------------------------------------------------------------

 POTCAR:  PAW_PBE Bi_d 06Sep2000                  
   VRHFIN =Bi:                                                                                      
   LEXCH  = PE                                                                                      
   EATOM  =  1959.2045 eV,  143.9975 Ry                                                             
                                                                                                    
   TITEL  = PAW_PBE Bi_d 06Sep2000                                                                  
   LULTRA =        F    use ultrasoft PP ?                                                          
   IUNSCR =        1    unscreen: 0-lin 1-nonlin 2-no                                               
   RPACOR =    2.200    partial core radius                                                         
   POMASS =  208.980; ZVAL   =   15.000    mass and valenz                                          
   RCORE  =    2.500    outmost cutoff radius                                                       
   RWIGS  =    3.090; RWIGS  =    1.635    wigner-seitz radius (au A)                               
   ENMAX  =  242.839; ENMIN  =  182.129 eV                                                          
   ICORE  =        3    local potential                                                             
   LCOR   =        T    correct aug charges                                                         
   LPAW   =        T    paw PP                                                                      
   EAUG   =  442.899                                                                                
   DEXC   =    0.000                                                                                
   RMAX   =    2.551    core radius for proj-oper                                                   
   RAUG   =    1.300    factor for augmentation sphere                                              
   RDEP   =    2.650    radius for radial grids                                                     
   RDEPT  =    2.039    core radius for aug-charge                                                  
                                                                                                    
   Atomic configuration                                                                             
   16 entries                                                                                       
     n  l   j            E        occ.                                                              
     1  0  0.50    -90639.6581   2.0000                                                             
     2  0  0.50    -16282.4666   2.0000                                                             
     2  1  1.50    -13922.8286   6.0000                                                             
     3  0  0.50     -3930.4763   2.0000                                                             
     3  1  1.50     -3256.7013   6.0000                                                             
     3  2  2.50     -2581.6168  10.0000                                                             
     4  0  0.50      -902.2614   2.0000                                                             
     4  1  1.50      -681.5915   6.0000                                                             
     4  2  2.50      -429.8249  10.0000                                                             
     4  3  3.50      -152.6004  14.0000                                                             
     5  0  0.50      -157.7156   2.0000                                                             
     5  1  1.50       -95.8054   6.0000                                                             
     5  2  2.50       -27.0806  10.0000                                                             
     6  0  0.50       -14.4732   2.0000                                                             
     6  1  1.50        -4.5702   3.0000                                                             
     5  3  2.50        -2.7212   0.0000                                                             
   Description                                                                                      
     l       E           TYP  RCUT    TYP  RCUT                                                     
     2    -27.0805982     23  2.500                                                                 
     2     -1.3605826     23  2.500                                                                 
     0    -14.4732271     23  2.500                                                                 
     0      6.8029130     23  2.500                                                                 
     1     -4.5701651     23  2.500                                                                 
     1     13.6058260     23  2.500                                                                 
     3     -1.3605826      7  2.500                                                                 
  local pseudopotential read in
  partial core-charges read in
  partial kinetic energy density read in
  atomic valenz-charges read in
  non local Contribution for L=           2  read in
    real space projection operators read in
  non local Contribution for L=           2  read in
    real space projection operators read in
  non local Contribution for L=           0  read in
    real space projection operators read in
  non local Contribution for L=           0  read in
    real space projection operators read in
  non local Contribution for L=           1  read in
    real space projection operators read in
  non local Contribution for L=           1  read in
    real space projection operators read in
    PAW grid and wavefunctions read in
 
   number of l-projection  operators is LMAX  =           6
   number of lm-projection operators is LMMAX =          18
 
PAW_PBE Bi_d 06Sep2000                  :
 energy of atom  1       EATOM=-1959.2045
 kinetic energy error for atom=    0.0412 (will be added to EATOM!!)
 
 
 POSCAR: Bi6
  positions in direct lattice
  No initial velocities read in


 exchange-correlation table for PE
   RHO(1)=    0.500       N(1)  =     2000
   RHO(2)=  100.500       N(2)  =     4000
 


--------------------------------------------------------------------------------------------------------


 ion  position               nearest neighbor table
   1  0.000  0.000  0.234-   4 3.11   4 3.11   4 3.11   6 3.59   6 3.59   6 3.59
   2  0.000  0.000  0.766-   5 3.11   5 3.11   5 3.11   3 3.59   3 3.59   3 3.59
   3  0.667  0.333  0.567-   6 3.11   6 3.11   6 3.11   2 3.59   2 3.59   2 3.59
   4  0.667  0.333  0.100-   1 3.11   1 3.11   1 3.11   5 3.59   5 3.59   5 3.59
   5  0.333  0.667  0.900-   2 3.11   2 3.11   2 3.11   4 3.59   4 3.59   4 3.59
   6  0.333  0.667  0.433-   3 3.11   3 3.11   3 3.11   1 3.59   1 3.59   1 3.59
 
  LATTYP: Found a hexagonal cell.
 ALAT       =     4.5886600000
 C/A-ratio  =     2.6548556659
  
  Lattice vectors:
  
 A1 = (   4.5886600000,   0.0000000000,   0.0000000000)
 A2 = (  -2.2943300000,   3.9738961293,   0.0000000000)
 A3 = (   0.0000000000,   0.0000000000,  12.1822300000)


Analysis of symmetry for initial positions (statically):
=====================================================================
 Subroutine PRICEL returns:
 Original cell was already a primitive cell.
 

 Routine SETGRP: Setting up the symmetry group for a 
 hexagonal supercell.


 Subroutine GETGRP returns: Found 12 space group operations
 (whereof 12 operations were pure point group operations)
 out of a pool of 24 trial point group operations.


The static configuration has the point symmetry D_3d.


Analysis of symmetry for dynamics (positions and initial velocities):
=====================================================================
 Subroutine PRICEL returns:
 Original cell was already a primitive cell.
 

 Routine SETGRP: Setting up the symmetry group for a 
 hexagonal supercell.


 Subroutine GETGRP returns: Found 12 space group operations
 (whereof 12 operations were pure point group operations)
 out of a pool of 24 trial point group operations.


The dynamic configuration has the point symmetry D_3d.


Analysis of structural, dynamic, and magnetic symmetry:
=====================================================================
 Subroutine PRICEL returns:
 Original cell was already a primitive cell.
 

 Routine SETGRP: Setting up the symmetry group for a 
 hexagonal supercell.


 Subroutine GETGRP returns: Found  2 space group operations
 (whereof  2 operations were pure point group operations)
 out of a pool of 24 trial point group operations.


The overall configuration has the point symmetry S_2 .


 Subroutine INISYM returns: Found  2 space group operations
 (whereof  2 operations are pure point group operations),
 and found     1 'primitive' translations


----------------------------------------------------------------------------------------

                                     Primitive cell                                     

  volume of cell :     222.1412

  direct lattice vectors                    reciprocal lattice vectors
     4.588660000  0.000000000  0.000000000     0.217928546  0.125821104  0.000000000
    -2.294330000  3.973896129  0.000000000     0.000000000  0.251642209  0.000000000
     0.000000000  0.000000000 12.182230000    -0.000000000 -0.000000000  0.082086777

  length of vectors
     4.588660000  4.588660000 12.182230000     0.251642209  0.251642209  0.082086777

  position of ions in fractional coordinates (direct lattice)
     0.000000000  0.000000000  0.233740000
     0.000000000  0.000000000  0.766260000
     0.666666667  0.333333333  0.567070000
     0.666666667  0.333333333  0.099590000
     0.333333333  0.666666667  0.900410000
     0.333333333  0.666666667  0.432930000

  ion indices of the primitive-cell ions
   primitive index   ion index
                 1           1
                 2           2
                 3           3
                 4           4
                 5           5
                 6           6

----------------------------------------------------------------------------------------

 
 
 KPOINTS: Automatic kpoint scheme                 

Automatic generation of k-mesh.
 Grid dimensions read from file:
 generate k-points for:    8    8    8

 Generating k-lattice:

  Cartesian coordinates                     Fractional coordinates (reciprocal lattice)
     0.027241068  0.015727638  0.000000000     0.125000000  0.000000000  0.000000000
     0.000000000  0.031455276  0.000000000     0.000000000  0.125000000  0.000000000
    -0.000000000 -0.000000000  0.010260847    -0.000000000  0.000000000  0.125000000

  Length of vectors
     0.031455276  0.031455276  0.010260847

  Shift w.r.t. Gamma in fractional coordinates (k-lattice)
     0.000000000  0.000000000  0.000000000

 
 Subroutine IBZKPT returns following result:
 ===========================================
 
 Found    260 irreducible k-points:
 
 Following reciprocal coordinates:
            Coordinates               Weight
  0.000000  0.000000  0.000000      1.000000
  0.125000  0.000000  0.000000      2.000000
  0.000000  0.125000  0.000000      2.000000
 -0.125000  0.125000  0.000000      2.000000
  0.250000  0.000000  0.000000      2.000000
  0.000000  0.250000  0.000000      2.000000
 -0.250000  0.250000  0.000000      2.000000
  0.375000  0.000000  0.000000      2.000000
  0.000000  0.375000  0.000000      2.000000
 -0.375000  0.375000  0.000000      2.000000
  0.500000  0.000000  0.000000      1.000000
  0.000000  0.500000  0.000000      1.000000
  0.500000  0.500000  0.000000      1.000000
  0.125000  0.125000  0.000000      2.000000
 -0.125000  0.250000  0.000000      2.000000
 -0.250000  0.125000  0.000000      2.000000
  0.250000  0.125000  0.000000      2.000000
 -0.125000  0.375000  0.000000      2.000000
 -0.375000  0.250000  0.000000      2.000000
 -0.250000  0.375000  0.000000      2.000000
  0.125000  0.250000  0.000000      2.000000
  0.375000 -0.125000  0.000000      2.000000
  0.375000  0.125000  0.000000      2.000000
 -0.125000  0.500000  0.000000      2.000000
  0.500000  0.375000  0.000000      2.000000
 -0.375000  0.500000  0.000000      2.000000
  0.125000  0.375000  0.000000      2.000000
  0.500000 -0.125000  0.000000      2.000000
  0.250000  0.250000  0.000000      2.000000
 -0.250000  0.500000  0.000000      2.000000
  0.500000  0.250000  0.000000      2.000000
  0.375000  0.250000  0.000000      2.000000
 -0.250000 -0.375000  0.000000      2.000000
  0.375000  0.375000  0.000000      2.000000
 -0.000000  0.000000  0.125000      2.000000
  0.125000  0.000000  0.125000      2.000000
 -0.000000  0.125000  0.125000      2.000000
 -0.125000  0.125000  0.125000      2.000000
 -0.125000 -0.000000  0.125000      2.000000
 -0.000000 -0.125000  0.125000      2.000000
  0.125000 -0.125000  0.125000      2.000000
  0.250000  0.000000  0.125000      2.000000
 -0.000000  0.250000  0.125000      2.000000
 -0.250000  0.250000  0.125000      2.000000
 -0.250000 -0.000000  0.125000      2.000000
 -0.000000 -0.250000  0.125000      2.000000
  0.250000 -0.250000  0.125000      2.000000
  0.375000  0.000000  0.125000      2.000000
 -0.000000  0.375000  0.125000      2.000000
 -0.375000  0.375000  0.125000      2.000000
 -0.375000  0.000000  0.125000      2.000000
 -0.000000 -0.375000  0.125000      2.000000
  0.375000 -0.375000  0.125000      2.000000
  0.500000  0.000000  0.125000      2.000000
 -0.000000  0.500000  0.125000      2.000000
  0.500000  0.500000  0.125000      2.000000
  0.125000  0.125000  0.125000      2.000000
 -0.125000  0.250000  0.125000      2.000000
 -0.250000  0.125000  0.125000      2.000000
 -0.125000 -0.125000  0.125000      2.000000
  0.125000 -0.250000  0.125000      2.000000
  0.250000 -0.125000  0.125000      2.000000
  0.250000  0.125000  0.125000      2.000000
 -0.125000  0.375000  0.125000      2.000000
 -0.375000  0.250000  0.125000      2.000000
 -0.250000 -0.125000  0.125000      2.000000
  0.125000 -0.375000  0.125000      2.000000
  0.375000 -0.250000  0.125000      2.000000
 -0.250000  0.375000 -0.125000      2.000000
  0.125000  0.250000 -0.125000      2.000000
  0.375000 -0.125000 -0.125000      2.000000
  0.250000 -0.375000 -0.125000      2.000000
 -0.125000 -0.250000 -0.125000      2.000000
 -0.375000  0.125000 -0.125000      2.000000
  0.375000  0.125000  0.125000      2.000000
 -0.125000  0.500000  0.125000      2.000000
  0.500000  0.375000  0.125000      2.000000
 -0.375000 -0.125000  0.125000      2.000000
  0.125000  0.500000  0.125000      2.000000
  0.500000 -0.375000  0.125000      2.000000
 -0.375000  0.500000 -0.125000      2.000000
  0.125000  0.375000 -0.125000      2.000000
  0.500000 -0.125000 -0.125000      2.000000
  0.375000  0.500000 -0.125000      2.000000
 -0.125000 -0.375000 -0.125000      2.000000
  0.500000  0.125000 -0.125000      2.000000
  0.250000  0.250000  0.125000      2.000000
 -0.250000  0.500000  0.125000      2.000000
  0.500000  0.250000  0.125000      2.000000
 -0.250000 -0.250000  0.125000      2.000000
  0.250000  0.500000  0.125000      2.000000
  0.500000 -0.250000  0.125000      2.000000
  0.375000  0.250000  0.125000      2.000000
 -0.250000 -0.375000  0.125000      2.000000
  0.375000  0.375000  0.125000      2.000000
 -0.375000 -0.250000  0.125000      2.000000
  0.250000  0.375000  0.125000      2.000000
 -0.375000 -0.375000  0.125000      2.000000
 -0.000000  0.000000  0.250000      2.000000
  0.125000 -0.000000  0.250000      2.000000
 -0.000000  0.125000  0.250000      2.000000
 -0.125000  0.125000  0.250000      2.000000
 -0.125000 -0.000000  0.250000      2.000000
 -0.000000 -0.125000  0.250000      2.000000
  0.125000 -0.125000  0.250000      2.000000
  0.250000  0.000000  0.250000      2.000000
 -0.000000  0.250000  0.250000      2.000000
 -0.250000  0.250000  0.250000      2.000000
 -0.250000 -0.000000  0.250000      2.000000
 -0.000000 -0.250000  0.250000      2.000000
  0.250000 -0.250000  0.250000      2.000000
  0.375000  0.000000  0.250000      2.000000
 -0.000000  0.375000  0.250000      2.000000
 -0.375000  0.375000  0.250000      2.000000
 -0.375000  0.000000  0.250000      2.000000
 -0.000000 -0.375000  0.250000      2.000000
  0.375000 -0.375000  0.250000      2.000000
  0.500000  0.000000  0.250000      2.000000
 -0.000000  0.500000  0.250000      2.000000
  0.500000  0.500000  0.250000      2.000000
  0.125000  0.125000  0.250000      2.000000
 -0.125000  0.250000  0.250000      2.000000
 -0.250000  0.125000  0.250000      2.000000
 -0.125000 -0.125000  0.250000      2.000000
  0.125000 -0.250000  0.250000      2.000000
  0.250000 -0.125000  0.250000      2.000000
  0.250000  0.125000  0.250000      2.000000
 -0.125000  0.375000  0.250000      2.000000
 -0.375000  0.250000  0.250000      2.000000
 -0.250000 -0.125000  0.250000      2.000000
  0.125000 -0.375000  0.250000      2.000000
  0.375000 -0.250000  0.250000      2.000000
 -0.250000  0.375000 -0.250000      2.000000
  0.125000  0.250000 -0.250000      2.000000
  0.375000 -0.125000 -0.250000      2.000000
  0.250000 -0.375000 -0.250000      2.000000
 -0.125000 -0.250000 -0.250000      2.000000
 -0.375000  0.125000 -0.250000      2.000000
  0.375000  0.125000  0.250000      2.000000
 -0.125000  0.500000  0.250000      2.000000
  0.500000  0.375000  0.250000      2.000000
 -0.375000 -0.125000  0.250000      2.000000
  0.125000  0.500000  0.250000      2.000000
  0.500000 -0.375000  0.250000      2.000000
 -0.375000  0.500000 -0.250000      2.000000
  0.125000  0.375000 -0.250000      2.000000
  0.500000 -0.125000 -0.250000      2.000000
  0.375000  0.500000 -0.250000      2.000000
 -0.125000 -0.375000 -0.250000      2.000000
  0.500000  0.125000 -0.250000      2.000000
  0.250000  0.250000  0.250000      2.000000
 -0.250000  0.500000  0.250000      2.000000
  0.500000  0.250000  0.250000      2.000000
 -0.250000 -0.250000  0.250000      2.000000
  0.250000  0.500000  0.250000      2.000000
  0.500000 -0.250000  0.250000      2.000000
  0.375000  0.250000  0.250000      2.000000
 -0.250000 -0.375000  0.250000      2.000000
  0.375000  0.375000  0.250000      2.000000
 -0.375000 -0.250000  0.250000      2.000000
  0.250000  0.375000  0.250000      2.000000
 -0.375000 -0.375000  0.250000      2.000000
 -0.000000 -0.000000  0.375000      2.000000
  0.125000  0.000000  0.375000      2.000000
 -0.000000  0.125000  0.375000      2.000000
 -0.125000  0.125000  0.375000      2.000000
 -0.125000  0.000000  0.375000      2.000000
 -0.000000 -0.125000  0.375000      2.000000
  0.125000 -0.125000  0.375000      2.000000
  0.250000 -0.000000  0.375000      2.000000
 -0.000000  0.250000  0.375000      2.000000
 -0.250000  0.250000  0.375000      2.000000
 -0.250000 -0.000000  0.375000      2.000000
 -0.000000 -0.250000  0.375000      2.000000
  0.250000 -0.250000  0.375000      2.000000
  0.375000 -0.000000  0.375000      2.000000
 -0.000000  0.375000  0.375000      2.000000
 -0.375000  0.375000  0.375000      2.000000
 -0.375000 -0.000000  0.375000      2.000000
 -0.000000 -0.375000  0.375000      2.000000
  0.375000 -0.375000  0.375000      2.000000
  0.500000  0.000000  0.375000      2.000000
 -0.000000  0.500000  0.375000      2.000000
  0.500000  0.500000  0.375000      2.000000
  0.125000  0.125000  0.375000      2.000000
 -0.125000  0.250000  0.375000      2.000000
 -0.250000  0.125000  0.375000      2.000000
 -0.125000 -0.125000  0.375000      2.000000
  0.125000 -0.250000  0.375000      2.000000
  0.250000 -0.125000  0.375000      2.000000
  0.250000  0.125000  0.375000      2.000000
 -0.125000  0.375000  0.375000      2.000000
 -0.375000  0.250000  0.375000      2.000000
 -0.250000 -0.125000  0.375000      2.000000
  0.125000 -0.375000  0.375000      2.000000
  0.375000 -0.250000  0.375000      2.000000
 -0.250000  0.375000 -0.375000      2.000000
  0.125000  0.250000 -0.375000      2.000000
  0.375000 -0.125000 -0.375000      2.000000
  0.250000 -0.375000 -0.375000      2.000000
 -0.125000 -0.250000 -0.375000      2.000000
 -0.375000  0.125000 -0.375000      2.000000
  0.375000  0.125000  0.375000      2.000000
 -0.125000  0.500000  0.375000      2.000000
  0.500000  0.375000  0.375000      2.000000
 -0.375000 -0.125000  0.375000      2.000000
  0.125000  0.500000  0.375000      2.000000
  0.500000 -0.375000  0.375000      2.000000
 -0.375000  0.500000 -0.375000      2.000000
  0.125000  0.375000 -0.375000      2.000000
  0.500000 -0.125000 -0.375000      2.000000
  0.375000  0.500000 -0.375000      2.000000
 -0.125000 -0.375000 -0.375000      2.000000
  0.500000  0.125000 -0.375000      2.000000
  0.250000  0.250000  0.375000      2.000000
 -0.250000  0.500000  0.375000      2.000000
  0.500000  0.250000  0.375000      2.000000
 -0.250000 -0.250000  0.375000      2.000000
  0.250000  0.500000  0.375000      2.000000
  0.500000 -0.250000  0.375000      2.000000
  0.375000  0.250000  0.375000      2.000000
 -0.250000 -0.375000  0.375000      2.000000
  0.375000  0.375000  0.375000      2.000000
 -0.375000 -0.250000  0.375000      2.000000
  0.250000  0.375000  0.375000      2.000000
 -0.375000 -0.375000  0.375000      2.000000
 -0.000000  0.000000  0.500000      1.000000
  0.125000  0.000000  0.500000      2.000000
 -0.000000  0.125000  0.500000      2.000000
 -0.125000  0.125000  0.500000      2.000000
  0.250000 -0.000000  0.500000      2.000000
 -0.000000  0.250000  0.500000      2.000000
 -0.250000  0.250000  0.500000      2.000000
  0.375000 -0.000000  0.500000      2.000000
 -0.000000  0.375000  0.500000      2.000000
 -0.375000  0.375000  0.500000      2.000000
  0.500000  0.000000  0.500000      1.000000
 -0.000000  0.500000  0.500000      1.000000
  0.500000  0.500000  0.500000      1.000000
  0.125000  0.125000  0.500000      2.000000
 -0.125000  0.250000  0.500000      2.000000
 -0.250000  0.125000  0.500000      2.000000
  0.250000  0.125000  0.500000      2.000000
 -0.125000  0.375000  0.500000      2.000000
 -0.375000  0.250000  0.500000      2.000000
 -0.250000  0.375000  0.500000      2.000000
  0.125000  0.250000  0.500000      2.000000
  0.375000 -0.125000  0.500000      2.000000
  0.375000  0.125000  0.500000      2.000000
 -0.125000  0.500000  0.500000      2.000000
  0.500000  0.375000  0.500000      2.000000
 -0.375000  0.500000  0.500000      2.000000
  0.125000  0.375000  0.500000      2.000000
  0.500000 -0.125000  0.500000      2.000000
  0.250000  0.250000  0.500000      2.000000
 -0.250000  0.500000  0.500000      2.000000
  0.500000  0.250000  0.500000      2.000000
  0.375000  0.250000  0.500000      2.000000
 -0.250000 -0.375000  0.500000      2.000000
  0.375000  0.375000  0.500000      2.000000
 
 Following cartesian coordinates:
            Coordinates               Weight
  0.000000  0.000000  0.000000      1.000000
  0.027241  0.015728  0.000000      2.000000
  0.000000  0.031455  0.000000      2.000000
 -0.027241  0.015728  0.000000      2.000000
  0.054482  0.031455  0.000000      2.000000
  0.000000  0.062911  0.000000      2.000000
 -0.054482  0.031455  0.000000      2.000000
  0.081723  0.047183  0.000000      2.000000
  0.000000  0.094366  0.000000      2.000000
 -0.081723  0.047183  0.000000      2.000000
  0.108964  0.062911  0.000000      1.000000
  0.000000  0.125821  0.000000      1.000000
  0.108964  0.188732  0.000000      1.000000
  0.027241  0.047183  0.000000      2.000000
 -0.027241  0.047183  0.000000      2.000000
 -0.054482  0.000000  0.000000      2.000000
  0.054482  0.062911  0.000000      2.000000
 -0.027241  0.078638  0.000000      2.000000
 -0.081723  0.015728  0.000000      2.000000
 -0.054482  0.062911  0.000000      2.000000
  0.027241  0.078638  0.000000      2.000000
  0.081723  0.015728  0.000000      2.000000
  0.081723  0.078638  0.000000      2.000000
 -0.027241  0.110093  0.000000      2.000000
  0.108964  0.157276  0.000000      2.000000
 -0.081723  0.078638  0.000000      2.000000
  0.027241  0.110093  0.000000      2.000000
  0.108964  0.031455  0.000000      2.000000
  0.054482  0.094366  0.000000      2.000000
 -0.054482  0.094366  0.000000      2.000000
  0.108964  0.125821  0.000000      2.000000
  0.081723  0.110093  0.000000      2.000000
 -0.054482 -0.125821  0.000000      2.000000
  0.081723  0.141549  0.000000      2.000000
 -0.000000 -0.000000  0.010261      2.000000
  0.027241  0.015728  0.010261      2.000000
 -0.000000  0.031455  0.010261      2.000000
 -0.027241  0.015728  0.010261      2.000000
 -0.027241 -0.015728  0.010261      2.000000
 -0.000000 -0.031455  0.010261      2.000000
  0.027241 -0.015728  0.010261      2.000000
  0.054482  0.031455  0.010261      2.000000
 -0.000000  0.062911  0.010261      2.000000
 -0.054482  0.031455  0.010261      2.000000
 -0.054482 -0.031455  0.010261      2.000000
 -0.000000 -0.062911  0.010261      2.000000
  0.054482 -0.031455  0.010261      2.000000
  0.081723  0.047183  0.010261      2.000000
 -0.000000  0.094366  0.010261      2.000000
 -0.081723  0.047183  0.010261      2.000000
 -0.081723 -0.047183  0.010261      2.000000
 -0.000000 -0.094366  0.010261      2.000000
  0.081723 -0.047183  0.010261      2.000000
  0.108964  0.062911  0.010261      2.000000
 -0.000000  0.125821  0.010261      2.000000
  0.108964  0.188732  0.010261      2.000000
  0.027241  0.047183  0.010261      2.000000
 -0.027241  0.047183  0.010261      2.000000
 -0.054482  0.000000  0.010261      2.000000
 -0.027241 -0.047183  0.010261      2.000000
  0.027241 -0.047183  0.010261      2.000000
  0.054482 -0.000000  0.010261      2.000000
  0.054482  0.062911  0.010261      2.000000
 -0.027241  0.078638  0.010261      2.000000
 -0.081723  0.015728  0.010261      2.000000
 -0.054482 -0.062911  0.010261      2.000000
  0.027241 -0.078638  0.010261      2.000000
  0.081723 -0.015728  0.010261      2.000000
 -0.054482  0.062911 -0.010261      2.000000
  0.027241  0.078638 -0.010261      2.000000
  0.081723  0.015728 -0.010261      2.000000
  0.054482 -0.062911 -0.010261      2.000000
 -0.027241 -0.078638 -0.010261      2.000000
 -0.081723 -0.015728 -0.010261      2.000000
  0.081723  0.078638  0.010261      2.000000
 -0.027241  0.110093  0.010261      2.000000
  0.108964  0.157276  0.010261      2.000000
 -0.081723 -0.078638  0.010261      2.000000
  0.027241  0.141549  0.010261      2.000000
  0.108964 -0.031455  0.010261      2.000000
 -0.081723  0.078638 -0.010261      2.000000
  0.027241  0.110093 -0.010261      2.000000
  0.108964  0.031455 -0.010261      2.000000
  0.081723  0.173004 -0.010261      2.000000
 -0.027241 -0.110093 -0.010261      2.000000
  0.108964  0.094366 -0.010261      2.000000
  0.054482  0.094366  0.010261      2.000000
 -0.054482  0.094366  0.010261      2.000000
  0.108964  0.125821  0.010261      2.000000
 -0.054482 -0.094366  0.010261      2.000000
  0.054482  0.157276  0.010261      2.000000
  0.108964 -0.000000  0.010261      2.000000
  0.081723  0.110093  0.010261      2.000000
 -0.054482 -0.125821  0.010261      2.000000
  0.081723  0.141549  0.010261      2.000000
 -0.081723 -0.110093  0.010261      2.000000
  0.054482  0.125821  0.010261      2.000000
 -0.081723 -0.141549  0.010261      2.000000
 -0.000000 -0.000000  0.020522      2.000000
  0.027241  0.015728  0.020522      2.000000
 -0.000000  0.031455  0.020522      2.000000
 -0.027241  0.015728  0.020522      2.000000
 -0.027241 -0.015728  0.020522      2.000000
 -0.000000 -0.031455  0.020522      2.000000
  0.027241 -0.015728  0.020522      2.000000
  0.054482  0.031455  0.020522      2.000000
 -0.000000  0.062911  0.020522      2.000000
 -0.054482  0.031455  0.020522      2.000000
 -0.054482 -0.031455  0.020522      2.000000
 -0.000000 -0.062911  0.020522      2.000000
  0.054482 -0.031455  0.020522      2.000000
  0.081723  0.047183  0.020522      2.000000
 -0.000000  0.094366  0.020522      2.000000
 -0.081723  0.047183  0.020522      2.000000
 -0.081723 -0.047183  0.020522      2.000000
 -0.000000 -0.094366  0.020522      2.000000
  0.081723 -0.047183  0.020522      2.000000
  0.108964  0.062911  0.020522      2.000000
 -0.000000  0.125821  0.020522      2.000000
  0.108964  0.188732  0.020522      2.000000
  0.027241  0.047183  0.020522      2.000000
 -0.027241  0.047183  0.020522      2.000000
 -0.054482  0.000000  0.020522      2.000000
 -0.027241 -0.047183  0.020522      2.000000
  0.027241 -0.047183  0.020522      2.000000
  0.054482 -0.000000  0.020522      2.000000
  0.054482  0.062911  0.020522      2.000000
 -0.027241  0.078638  0.020522      2.000000
 -0.081723  0.015728  0.020522      2.000000
 -0.054482 -0.062911  0.020522      2.000000
  0.027241 -0.078638  0.020522      2.000000
  0.081723 -0.015728  0.020522      2.000000
 -0.054482  0.062911 -0.020522      2.000000
  0.027241  0.078638 -0.020522      2.000000
  0.081723  0.015728 -0.020522      2.000000
  0.054482 -0.062911 -0.020522      2.000000
 -0.027241 -0.078638 -0.020522      2.000000
 -0.081723 -0.015728 -0.020522      2.000000
  0.081723  0.078638  0.020522      2.000000
 -0.027241  0.110093  0.020522      2.000000
  0.108964  0.157276  0.020522      2.000000
 -0.081723 -0.078638  0.020522      2.000000
  0.027241  0.141549  0.020522      2.000000
  0.108964 -0.031455  0.020522      2.000000
 -0.081723  0.078638 -0.020522      2.000000
  0.027241  0.110093 -0.020522      2.000000
  0.108964  0.031455 -0.020522      2.000000
  0.081723  0.173004 -0.020522      2.000000
 -0.027241 -0.110093 -0.020522      2.000000
  0.108964  0.094366 -0.020522      2.000000
  0.054482  0.094366  0.020522      2.000000
 -0.054482  0.094366  0.020522      2.000000
  0.108964  0.125821  0.020522      2.000000
 -0.054482 -0.094366  0.020522      2.000000
  0.054482  0.157276  0.020522      2.000000
  0.108964 -0.000000  0.020522      2.000000
  0.081723  0.110093  0.020522      2.000000
 -0.054482 -0.125821  0.020522      2.000000
  0.081723  0.141549  0.020522      2.000000
 -0.081723 -0.110093  0.020522      2.000000
  0.054482  0.125821  0.020522      2.000000
 -0.081723 -0.141549  0.020522      2.000000
 -0.000000 -0.000000  0.030783      2.000000
  0.027241  0.015728  0.030783      2.000000
 -0.000000  0.031455  0.030783      2.000000
 -0.027241  0.015728  0.030783      2.000000
 -0.027241 -0.015728  0.030783      2.000000
 -0.000000 -0.031455  0.030783      2.000000
  0.027241 -0.015728  0.030783      2.000000
  0.054482  0.031455  0.030783      2.000000
 -0.000000  0.062911  0.030783      2.000000
 -0.054482  0.031455  0.030783      2.000000
 -0.054482 -0.031455  0.030783      2.000000
 -0.000000 -0.062911  0.030783      2.000000
  0.054482 -0.031455  0.030783      2.000000
  0.081723  0.047183  0.030783      2.000000
 -0.000000  0.094366  0.030783      2.000000
 -0.081723  0.047183  0.030783      2.000000
 -0.081723 -0.047183  0.030783      2.000000
 -0.000000 -0.094366  0.030783      2.000000
  0.081723 -0.047183  0.030783      2.000000
  0.108964  0.062911  0.030783      2.000000
 -0.000000  0.125821  0.030783      2.000000
  0.108964  0.188732  0.030783      2.000000
  0.027241  0.047183  0.030783      2.000000
 -0.027241  0.047183  0.030783      2.000000
 -0.054482  0.000000  0.030783      2.000000
 -0.027241 -0.047183  0.030783      2.000000
  0.027241 -0.047183  0.030783      2.000000
  0.054482 -0.000000  0.030783      2.000000
  0.054482  0.062911  0.030783      2.000000
 -0.027241  0.078638  0.030783      2.000000
 -0.081723  0.015728  0.030783      2.000000
 -0.054482 -0.062911  0.030783      2.000000
  0.027241 -0.078638  0.030783      2.000000
  0.081723 -0.015728  0.030783      2.000000
 -0.054482  0.062911 -0.030783      2.000000
  0.027241  0.078638 -0.030783      2.000000
  0.081723  0.015728 -0.030783      2.000000
  0.054482 -0.062911 -0.030783      2.000000
 -0.027241 -0.078638 -0.030783      2.000000
 -0.081723 -0.015728 -0.030783      2.000000
  0.081723  0.078638  0.030783      2.000000
 -0.027241  0.110093  0.030783      2.000000
  0.108964  0.157276  0.030783      2.000000
 -0.081723 -0.078638  0.030783      2.000000
  0.027241  0.141549  0.030783      2.000000
  0.108964 -0.031455  0.030783      2.000000
 -0.081723  0.078638 -0.030783      2.000000
  0.027241  0.110093 -0.030783      2.000000
  0.108964  0.031455 -0.030783      2.000000
  0.081723  0.173004 -0.030783      2.000000
 -0.027241 -0.110093 -0.030783      2.000000
  0.108964  0.094366 -0.030783      2.000000
  0.054482  0.094366  0.030783      2.000000
 -0.054482  0.094366  0.030783      2.000000
  0.108964  0.125821  0.030783      2.000000
 -0.054482 -0.094366  0.030783      2.000000
  0.054482  0.157276  0.030783      2.000000
  0.108964 -0.000000  0.030783      2.000000
  0.081723  0.110093  0.030783      2.000000
 -0.054482 -0.125821  0.030783      2.000000
  0.081723  0.141549  0.030783      2.000000
 -0.081723 -0.110093  0.030783      2.000000
  0.054482  0.125821  0.030783      2.000000
 -0.081723 -0.141549  0.030783      2.000000
 -0.000000 -0.000000  0.041043      1.000000
  0.027241  0.015728  0.041043      2.000000
 -0.000000  0.031455  0.041043      2.000000
 -0.027241  0.015728  0.041043      2.000000
  0.054482  0.031455  0.041043      2.000000
 -0.000000  0.062911  0.041043      2.000000
 -0.054482  0.031455  0.041043      2.000000
  0.081723  0.047183  0.041043      2.000000
 -0.000000  0.094366  0.041043      2.000000
 -0.081723  0.047183  0.041043      2.000000
  0.108964  0.062911  0.041043      1.000000
 -0.000000  0.125821  0.041043      1.000000
  0.108964  0.188732  0.041043      1.000000
  0.027241  0.047183  0.041043      2.000000
 -0.027241  0.047183  0.041043      2.000000
 -0.054482  0.000000  0.041043      2.000000
  0.054482  0.062911  0.041043      2.000000
 -0.027241  0.078638  0.041043      2.000000
 -0.081723  0.015728  0.041043      2.000000
 -0.054482  0.062911  0.041043      2.000000
  0.027241  0.078638  0.041043      2.000000
  0.081723  0.015728  0.041043      2.000000
  0.081723  0.078638  0.041043      2.000000
 -0.027241  0.110093  0.041043      2.000000
  0.108964  0.157276  0.041043      2.000000
 -0.081723  0.078638  0.041043      2.000000
  0.027241  0.110093  0.041043      2.000000
  0.108964  0.031455  0.041043      2.000000
  0.054482  0.094366  0.041043      2.000000
 -0.054482  0.094366  0.041043      2.000000
  0.108964  0.125821  0.041043      2.000000
  0.081723  0.110093  0.041043      2.000000
 -0.054482 -0.125821  0.041043      2.000000
  0.081723  0.141549  0.041043      2.000000
 
 
 Subroutine IBZKPT_HF returns following result:
 ==============================================
 
 Found    512 k-points in 1st BZ
 the following    512 k-points will be used (e.g. in the exchange kernel)
 Following reciprocal coordinates:   # in IRBZ
  0.000000  0.000000  0.000000    0.00195312   1 t-inv F
  0.125000  0.000000  0.000000    0.00195312   2 t-inv F
  0.000000  0.125000  0.000000    0.00195312   3 t-inv F
 -0.125000  0.125000  0.000000    0.00195312   4 t-inv F
  0.250000  0.000000  0.000000    0.00195312   5 t-inv F
  0.000000  0.250000  0.000000    0.00195312   6 t-inv F
 -0.250000  0.250000  0.000000    0.00195312   7 t-inv F
  0.375000  0.000000  0.000000    0.00195312   8 t-inv F
  0.000000  0.375000  0.000000    0.00195312   9 t-inv F
 -0.375000  0.375000  0.000000    0.00195312  10 t-inv F
  0.500000  0.000000  0.000000    0.00195312  11 t-inv F
  0.000000  0.500000  0.000000    0.00195312  12 t-inv F
  0.500000  0.500000  0.000000    0.00195312  13 t-inv F
  0.125000  0.125000  0.000000    0.00195312  14 t-inv F
 -0.125000  0.250000  0.000000    0.00195312  15 t-inv F
 -0.250000  0.125000  0.000000    0.00195312  16 t-inv F
  0.250000  0.125000  0.000000    0.00195312  17 t-inv F
 -0.125000  0.375000  0.000000    0.00195312  18 t-inv F
 -0.375000  0.250000  0.000000    0.00195312  19 t-inv F
 -0.250000  0.375000  0.000000    0.00195312  20 t-inv F
  0.125000  0.250000  0.000000    0.00195312  21 t-inv F
  0.375000 -0.125000  0.000000    0.00195312  22 t-inv F
  0.375000  0.125000  0.000000    0.00195312  23 t-inv F
 -0.125000  0.500000  0.000000    0.00195312  24 t-inv F
  0.500000  0.375000  0.000000    0.00195312  25 t-inv F
 -0.375000  0.500000  0.000000    0.00195312  26 t-inv F
  0.125000  0.375000  0.000000    0.00195312  27 t-inv F
  0.500000 -0.125000  0.000000    0.00195312  28 t-inv F
  0.250000  0.250000  0.000000    0.00195312  29 t-inv F
 -0.250000  0.500000  0.000000    0.00195312  30 t-inv F
  0.500000  0.250000  0.000000    0.00195312  31 t-inv F
  0.375000  0.250000  0.000000    0.00195312  32 t-inv F
 -0.250000 -0.375000  0.000000    0.00195312  33 t-inv F
  0.375000  0.375000  0.000000    0.00195312  34 t-inv F
 -0.000000  0.000000  0.125000    0.00195312  35 t-inv F
  0.125000  0.000000  0.125000    0.00195312  36 t-inv F
 -0.000000  0.125000  0.125000    0.00195312  37 t-inv F
 -0.125000  0.125000  0.125000    0.00195312  38 t-inv F
 -0.125000 -0.000000  0.125000    0.00195312  39 t-inv F
 -0.000000 -0.125000  0.125000    0.00195312  40 t-inv F
  0.125000 -0.125000  0.125000    0.00195312  41 t-inv F
  0.250000  0.000000  0.125000    0.00195312  42 t-inv F
 -0.000000  0.250000  0.125000    0.00195312  43 t-inv F
 -0.250000  0.250000  0.125000    0.00195312  44 t-inv F
 -0.250000 -0.000000  0.125000    0.00195312  45 t-inv F
 -0.000000 -0.250000  0.125000    0.00195312  46 t-inv F
  0.250000 -0.250000  0.125000    0.00195312  47 t-inv F
  0.375000  0.000000  0.125000    0.00195312  48 t-inv F
 -0.000000  0.375000  0.125000    0.00195312  49 t-inv F
 -0.375000  0.375000  0.125000    0.00195312  50 t-inv F
 -0.375000  0.000000  0.125000    0.00195312  51 t-inv F
 -0.000000 -0.375000  0.125000    0.00195312  52 t-inv F
  0.375000 -0.375000  0.125000    0.00195312  53 t-inv F
  0.500000  0.000000  0.125000    0.00195312  54 t-inv F
 -0.000000  0.500000  0.125000    0.00195312  55 t-inv F
  0.500000  0.500000  0.125000    0.00195312  56 t-inv F
  0.125000  0.125000  0.125000    0.00195312  57 t-inv F
 -0.125000  0.250000  0.125000    0.00195312  58 t-inv F
 -0.250000  0.125000  0.125000    0.00195312  59 t-inv F
 -0.125000 -0.125000  0.125000    0.00195312  60 t-inv F
  0.125000 -0.250000  0.125000    0.00195312  61 t-inv F
  0.250000 -0.125000  0.125000    0.00195312  62 t-inv F
  0.250000  0.125000  0.125000    0.00195312  63 t-inv F
 -0.125000  0.375000  0.125000    0.00195312  64 t-inv F
 -0.375000  0.250000  0.125000    0.00195312  65 t-inv F
 -0.250000 -0.125000  0.125000    0.00195312  66 t-inv F
  0.125000 -0.375000  0.125000    0.00195312  67 t-inv F
  0.375000 -0.250000  0.125000    0.00195312  68 t-inv F
 -0.250000  0.375000 -0.125000    0.00195312  69 t-inv F
  0.125000  0.250000 -0.125000    0.00195312  70 t-inv F
  0.375000 -0.125000 -0.125000    0.00195312  71 t-inv F
  0.250000 -0.375000 -0.125000    0.00195312  72 t-inv F
 -0.125000 -0.250000 -0.125000    0.00195312  73 t-inv F
 -0.375000  0.125000 -0.125000    0.00195312  74 t-inv F
  0.375000  0.125000  0.125000    0.00195312  75 t-inv F
 -0.125000  0.500000  0.125000    0.00195312  76 t-inv F
  0.500000  0.375000  0.125000    0.00195312  77 t-inv F
 -0.375000 -0.125000  0.125000    0.00195312  78 t-inv F
  0.125000  0.500000  0.125000    0.00195312  79 t-inv F
  0.500000 -0.375000  0.125000    0.00195312  80 t-inv F
 -0.375000  0.500000 -0.125000    0.00195312  81 t-inv F
  0.125000  0.375000 -0.125000    0.00195312  82 t-inv F
  0.500000 -0.125000 -0.125000    0.00195312  83 t-inv F
  0.375000  0.500000 -0.125000    0.00195312  84 t-inv F
 -0.125000 -0.375000 -0.125000    0.00195312  85 t-inv F
  0.500000  0.125000 -0.125000    0.00195312  86 t-inv F
  0.250000  0.250000  0.125000    0.00195312  87 t-inv F
 -0.250000  0.500000  0.125000    0.00195312  88 t-inv F
  0.500000  0.250000  0.125000    0.00195312  89 t-inv F
 -0.250000 -0.250000  0.125000    0.00195312  90 t-inv F
  0.250000  0.500000  0.125000    0.00195312  91 t-inv F
  0.500000 -0.250000  0.125000    0.00195312  92 t-inv F
  0.375000  0.250000  0.125000    0.00195312  93 t-inv F
 -0.250000 -0.375000  0.125000    0.00195312  94 t-inv F
  0.375000  0.375000  0.125000    0.00195312  95 t-inv F
 -0.375000 -0.250000  0.125000    0.00195312  96 t-inv F
  0.250000  0.375000  0.125000    0.00195312  97 t-inv F
 -0.375000 -0.375000  0.125000    0.00195312  98 t-inv F
 -0.000000  0.000000  0.250000    0.00195312  99 t-inv F
  0.125000 -0.000000  0.250000    0.00195312 100 t-inv F
 -0.000000  0.125000  0.250000    0.00195312 101 t-inv F
 -0.125000  0.125000  0.250000    0.00195312 102 t-inv F
 -0.125000 -0.000000  0.250000    0.00195312 103 t-inv F
 -0.000000 -0.125000  0.250000    0.00195312 104 t-inv F
  0.125000 -0.125000  0.250000    0.00195312 105 t-inv F
  0.250000  0.000000  0.250000    0.00195312 106 t-inv F
 -0.000000  0.250000  0.250000    0.00195312 107 t-inv F
 -0.250000  0.250000  0.250000    0.00195312 108 t-inv F
 -0.250000 -0.000000  0.250000    0.00195312 109 t-inv F
 -0.000000 -0.250000  0.250000    0.00195312 110 t-inv F
  0.250000 -0.250000  0.250000    0.00195312 111 t-inv F
  0.375000  0.000000  0.250000    0.00195312 112 t-inv F
 -0.000000  0.375000  0.250000    0.00195312 113 t-inv F
 -0.375000  0.375000  0.250000    0.00195312 114 t-inv F
 -0.375000  0.000000  0.250000    0.00195312 115 t-inv F
 -0.000000 -0.375000  0.250000    0.00195312 116 t-inv F
  0.375000 -0.375000  0.250000    0.00195312 117 t-inv F
  0.500000  0.000000  0.250000    0.00195312 118 t-inv F
 -0.000000  0.500000  0.250000    0.00195312 119 t-inv F
  0.500000  0.500000  0.250000    0.00195312 120 t-inv F
  0.125000  0.125000  0.250000    0.00195312 121 t-inv F
 -0.125000  0.250000  0.250000    0.00195312 122 t-inv F
 -0.250000  0.125000  0.250000    0.00195312 123 t-inv F
 -0.125000 -0.125000  0.250000    0.00195312 124 t-inv F
  0.125000 -0.250000  0.250000    0.00195312 125 t-inv F
  0.250000 -0.125000  0.250000    0.00195312 126 t-inv F
  0.250000  0.125000  0.250000    0.00195312 127 t-inv F
 -0.125000  0.375000  0.250000    0.00195312 128 t-inv F
 -0.375000  0.250000  0.250000    0.00195312 129 t-inv F
 -0.250000 -0.125000  0.250000    0.00195312 130 t-inv F
  0.125000 -0.375000  0.250000    0.00195312 131 t-inv F
  0.375000 -0.250000  0.250000    0.00195312 132 t-inv F
 -0.250000  0.375000 -0.250000    0.00195312 133 t-inv F
  0.125000  0.250000 -0.250000    0.00195312 134 t-inv F
  0.375000 -0.125000 -0.250000    0.00195312 135 t-inv F
  0.250000 -0.375000 -0.250000    0.00195312 136 t-inv F
 -0.125000 -0.250000 -0.250000    0.00195312 137 t-inv F
 -0.375000  0.125000 -0.250000    0.00195312 138 t-inv F
  0.375000  0.125000  0.250000    0.00195312 139 t-inv F
 -0.125000  0.500000  0.250000    0.00195312 140 t-inv F
  0.500000  0.375000  0.250000    0.00195312 141 t-inv F
 -0.375000 -0.125000  0.250000    0.00195312 142 t-inv F
  0.125000  0.500000  0.250000    0.00195312 143 t-inv F
  0.500000 -0.375000  0.250000    0.00195312 144 t-inv F
 -0.375000  0.500000 -0.250000    0.00195312 145 t-inv F
  0.125000  0.375000 -0.250000    0.00195312 146 t-inv F
  0.500000 -0.125000 -0.250000    0.00195312 147 t-inv F
  0.375000  0.500000 -0.250000    0.00195312 148 t-inv F
 -0.125000 -0.375000 -0.250000    0.00195312 149 t-inv F
  0.500000  0.125000 -0.250000    0.00195312 150 t-inv F
  0.250000  0.250000  0.250000    0.00195312 151 t-inv F
 -0.250000  0.500000  0.250000    0.00195312 152 t-inv F
  0.500000  0.250000  0.250000    0.00195312 153 t-inv F
 -0.250000 -0.250000  0.250000    0.00195312 154 t-inv F
  0.250000  0.500000  0.250000    0.00195312 155 t-inv F
  0.500000 -0.250000  0.250000    0.00195312 156 t-inv F
  0.375000  0.250000  0.250000    0.00195312 157 t-inv F
 -0.250000 -0.375000  0.250000    0.00195312 158 t-inv F
  0.375000  0.375000  0.250000    0.00195312 159 t-inv F
 -0.375000 -0.250000  0.250000    0.00195312 160 t-inv F
  0.250000  0.375000  0.250000    0.00195312 161 t-inv F
 -0.375000 -0.375000  0.250000    0.00195312 162 t-inv F
 -0.000000 -0.000000  0.375000    0.00195312 163 t-inv F
  0.125000  0.000000  0.375000    0.00195312 164 t-inv F
 -0.000000  0.125000  0.375000    0.00195312 165 t-inv F
 -0.125000  0.125000  0.375000    0.00195312 166 t-inv F
 -0.125000  0.000000  0.375000    0.00195312 167 t-inv F
 -0.000000 -0.125000  0.375000    0.00195312 168 t-inv F
  0.125000 -0.125000  0.375000    0.00195312 169 t-inv F
  0.250000 -0.000000  0.375000    0.00195312 170 t-inv F
 -0.000000  0.250000  0.375000    0.00195312 171 t-inv F
 -0.250000  0.250000  0.375000    0.00195312 172 t-inv F
 -0.250000 -0.000000  0.375000    0.00195312 173 t-inv F
 -0.000000 -0.250000  0.375000    0.00195312 174 t-inv F
  0.250000 -0.250000  0.375000    0.00195312 175 t-inv F
  0.375000 -0.000000  0.375000    0.00195312 176 t-inv F
 -0.000000  0.375000  0.375000    0.00195312 177 t-inv F
 -0.375000  0.375000  0.375000    0.00195312 178 t-inv F
 -0.375000 -0.000000  0.375000    0.00195312 179 t-inv F
 -0.000000 -0.375000  0.375000    0.00195312 180 t-inv F
  0.375000 -0.375000  0.375000    0.00195312 181 t-inv F
  0.500000  0.000000  0.375000    0.00195312 182 t-inv F
 -0.000000  0.500000  0.375000    0.00195312 183 t-inv F
  0.500000  0.500000  0.375000    0.00195312 184 t-inv F
  0.125000  0.125000  0.375000    0.00195312 185 t-inv F
 -0.125000  0.250000  0.375000    0.00195312 186 t-inv F
 -0.250000  0.125000  0.375000    0.00195312 187 t-inv F
 -0.125000 -0.125000  0.375000    0.00195312 188 t-inv F
  0.125000 -0.250000  0.375000    0.00195312 189 t-inv F
  0.250000 -0.125000  0.375000    0.00195312 190 t-inv F
  0.250000  0.125000  0.375000    0.00195312 191 t-inv F
 -0.125000  0.375000  0.375000    0.00195312 192 t-inv F
 -0.375000  0.250000  0.375000    0.00195312 193 t-inv F
 -0.250000 -0.125000  0.375000    0.00195312 194 t-inv F
  0.125000 -0.375000  0.375000    0.00195312 195 t-inv F
  0.375000 -0.250000  0.375000    0.00195312 196 t-inv F
 -0.250000  0.375000 -0.375000    0.00195312 197 t-inv F
  0.125000  0.250000 -0.375000    0.00195312 198 t-inv F
  0.375000 -0.125000 -0.375000    0.00195312 199 t-inv F
  0.250000 -0.375000 -0.375000    0.00195312 200 t-inv F
 -0.125000 -0.250000 -0.375000    0.00195312 201 t-inv F
 -0.375000  0.125000 -0.375000    0.00195312 202 t-inv F
  0.375000  0.125000  0.375000    0.00195312 203 t-inv F
 -0.125000  0.500000  0.375000    0.00195312 204 t-inv F
  0.500000  0.375000  0.375000    0.00195312 205 t-inv F
 -0.375000 -0.125000  0.375000    0.00195312 206 t-inv F
  0.125000  0.500000  0.375000    0.00195312 207 t-inv F
  0.500000 -0.375000  0.375000    0.00195312 208 t-inv F
 -0.375000  0.500000 -0.375000    0.00195312 209 t-inv F
  0.125000  0.375000 -0.375000    0.00195312 210 t-inv F
  0.500000 -0.125000 -0.375000    0.00195312 211 t-inv F
  0.375000  0.500000 -0.375000    0.00195312 212 t-inv F
 -0.125000 -0.375000 -0.375000    0.00195312 213 t-inv F
  0.500000  0.125000 -0.375000    0.00195312 214 t-inv F
  0.250000  0.250000  0.375000    0.00195312 215 t-inv F
 -0.250000  0.500000  0.375000    0.00195312 216 t-inv F
  0.500000  0.250000  0.375000    0.00195312 217 t-inv F
 -0.250000 -0.250000  0.375000    0.00195312 218 t-inv F
  0.250000  0.500000  0.375000    0.00195312 219 t-inv F
  0.500000 -0.250000  0.375000    0.00195312 220 t-inv F
  0.375000  0.250000  0.375000    0.00195312 221 t-inv F
 -0.250000 -0.375000  0.375000    0.00195312 222 t-inv F
  0.375000  0.375000  0.375000    0.00195312 223 t-inv F
 -0.375000 -0.250000  0.375000    0.00195312 224 t-inv F
  0.250000  0.375000  0.375000    0.00195312 225 t-inv F
 -0.375000 -0.375000  0.375000    0.00195312 226 t-inv F
 -0.000000  0.000000  0.500000    0.00195312 227 t-inv F
  0.125000  0.000000  0.500000    0.00195312 228 t-inv F
 -0.000000  0.125000  0.500000    0.00195312 229 t-inv F
 -0.125000  0.125000  0.500000    0.00195312 230 t-inv F
  0.250000 -0.000000  0.500000    0.00195312 231 t-inv F
 -0.000000  0.250000  0.500000    0.00195312 232 t-inv F
 -0.250000  0.250000  0.500000    0.00195312 233 t-inv F
  0.375000 -0.000000  0.500000    0.00195312 234 t-inv F
 -0.000000  0.375000  0.500000    0.00195312 235 t-inv F
 -0.375000  0.375000  0.500000    0.00195312 236 t-inv F
  0.500000  0.000000  0.500000    0.00195312 237 t-inv F
 -0.000000  0.500000  0.500000    0.00195312 238 t-inv F
  0.500000  0.500000  0.500000    0.00195312 239 t-inv F
  0.125000  0.125000  0.500000    0.00195312 240 t-inv F
 -0.125000  0.250000  0.500000    0.00195312 241 t-inv F
 -0.250000  0.125000  0.500000    0.00195312 242 t-inv F
  0.250000  0.125000  0.500000    0.00195312 243 t-inv F
 -0.125000  0.375000  0.500000    0.00195312 244 t-inv F
 -0.375000  0.250000  0.500000    0.00195312 245 t-inv F
 -0.250000  0.375000  0.500000    0.00195312 246 t-inv F
  0.125000  0.250000  0.500000    0.00195312 247 t-inv F
  0.375000 -0.125000  0.500000    0.00195312 248 t-inv F
  0.375000  0.125000  0.500000    0.00195312 249 t-inv F
 -0.125000  0.500000  0.500000    0.00195312 250 t-inv F
  0.500000  0.375000  0.500000    0.00195312 251 t-inv F
 -0.375000  0.500000  0.500000    0.00195312 252 t-inv F
  0.125000  0.375000  0.500000    0.00195312 253 t-inv F
  0.500000 -0.125000  0.500000    0.00195312 254 t-inv F
  0.250000  0.250000  0.500000    0.00195312 255 t-inv F
 -0.250000  0.500000  0.500000    0.00195312 256 t-inv F
  0.500000  0.250000  0.500000    0.00195312 257 t-inv F
  0.375000  0.250000  0.500000    0.00195312 258 t-inv F
 -0.250000 -0.375000  0.500000    0.00195312 259 t-inv F
  0.375000  0.375000  0.500000    0.00195312 260 t-inv F
 -0.125000 -0.000000  0.000000    0.00195312   2 t-inv F
  0.000000 -0.125000  0.000000    0.00195312   3 t-inv F
  0.125000 -0.125000  0.000000    0.00195312   4 t-inv F
 -0.250000 -0.000000  0.000000    0.00195312   5 t-inv F
  0.000000 -0.250000  0.000000    0.00195312   6 t-inv F
  0.250000 -0.250000  0.000000    0.00195312   7 t-inv F
 -0.375000 -0.000000  0.000000    0.00195312   8 t-inv F
  0.000000 -0.375000  0.000000    0.00195312   9 t-inv F
  0.375000 -0.375000  0.000000    0.00195312  10 t-inv F
 -0.125000 -0.125000  0.000000    0.00195312  14 t-inv F
  0.125000 -0.250000  0.000000    0.00195312  15 t-inv F
  0.250000 -0.125000  0.000000    0.00195312  16 t-inv F
 -0.250000 -0.125000  0.000000    0.00195312  17 t-inv F
  0.125000 -0.375000  0.000000    0.00195312  18 t-inv F
  0.375000 -0.250000  0.000000    0.00195312  19 t-inv F
  0.250000 -0.375000  0.000000    0.00195312  20 t-inv F
 -0.125000 -0.250000  0.000000    0.00195312  21 t-inv F
 -0.375000  0.125000  0.000000    0.00195312  22 t-inv F
 -0.375000 -0.125000  0.000000    0.00195312  23 t-inv F
  0.125000 -0.500000  0.000000    0.00195312  24 t-inv F
 -0.500000 -0.375000  0.000000    0.00195312  25 t-inv F
  0.375000 -0.500000  0.000000    0.00195312  26 t-inv F
 -0.125000 -0.375000  0.000000    0.00195312  27 t-inv F
 -0.500000  0.125000  0.000000    0.00195312  28 t-inv F
 -0.250000 -0.250000  0.000000    0.00195312  29 t-inv F
  0.250000 -0.500000  0.000000    0.00195312  30 t-inv F
 -0.500000 -0.250000  0.000000    0.00195312  31 t-inv F
 -0.375000 -0.250000  0.000000    0.00195312  32 t-inv F
  0.250000  0.375000  0.000000    0.00195312  33 t-inv F
 -0.375000 -0.375000  0.000000    0.00195312  34 t-inv F
  0.000000 -0.000000 -0.125000    0.00195312  35 t-inv F
 -0.125000 -0.000000 -0.125000    0.00195312  36 t-inv F
  0.000000 -0.125000 -0.125000    0.00195312  37 t-inv F
  0.125000 -0.125000 -0.125000    0.00195312  38 t-inv F
  0.125000  0.000000 -0.125000    0.00195312  39 t-inv F
  0.000000  0.125000 -0.125000    0.00195312  40 t-inv F
 -0.125000  0.125000 -0.125000    0.00195312  41 t-inv F
 -0.250000 -0.000000 -0.125000    0.00195312  42 t-inv F
  0.000000 -0.250000 -0.125000    0.00195312  43 t-inv F
  0.250000 -0.250000 -0.125000    0.00195312  44 t-inv F
  0.250000  0.000000 -0.125000    0.00195312  45 t-inv F
  0.000000  0.250000 -0.125000    0.00195312  46 t-inv F
 -0.250000  0.250000 -0.125000    0.00195312  47 t-inv F
 -0.375000 -0.000000 -0.125000    0.00195312  48 t-inv F
  0.000000 -0.375000 -0.125000    0.00195312  49 t-inv F
  0.375000 -0.375000 -0.125000    0.00195312  50 t-inv F
  0.375000 -0.000000 -0.125000    0.00195312  51 t-inv F
  0.000000  0.375000 -0.125000    0.00195312  52 t-inv F
 -0.375000  0.375000 -0.125000    0.00195312  53 t-inv F
 -0.500000 -0.000000 -0.125000    0.00195312  54 t-inv F
  0.000000 -0.500000 -0.125000    0.00195312  55 t-inv F
 -0.500000 -0.500000 -0.125000    0.00195312  56 t-inv F
 -0.125000 -0.125000 -0.125000    0.00195312  57 t-inv F
  0.125000 -0.250000 -0.125000    0.00195312  58 t-inv F
  0.250000 -0.125000 -0.125000    0.00195312  59 t-inv F
  0.125000  0.125000 -0.125000    0.00195312  60 t-inv F
 -0.125000  0.250000 -0.125000    0.00195312  61 t-inv F
 -0.250000  0.125000 -0.125000    0.00195312  62 t-inv F
 -0.250000 -0.125000 -0.125000    0.00195312  63 t-inv F
  0.125000 -0.375000 -0.125000    0.00195312  64 t-inv F
  0.375000 -0.250000 -0.125000    0.00195312  65 t-inv F
  0.250000  0.125000 -0.125000    0.00195312  66 t-inv F
 -0.125000  0.375000 -0.125000    0.00195312  67 t-inv F
 -0.375000  0.250000 -0.125000    0.00195312  68 t-inv F
  0.250000 -0.375000  0.125000    0.00195312  69 t-inv F
 -0.125000 -0.250000  0.125000    0.00195312  70 t-inv F
 -0.375000  0.125000  0.125000    0.00195312  71 t-inv F
 -0.250000  0.375000  0.125000    0.00195312  72 t-inv F
  0.125000  0.250000  0.125000    0.00195312  73 t-inv F
  0.375000 -0.125000  0.125000    0.00195312  74 t-inv F
 -0.375000 -0.125000 -0.125000    0.00195312  75 t-inv F
  0.125000 -0.500000 -0.125000    0.00195312  76 t-inv F
 -0.500000 -0.375000 -0.125000    0.00195312  77 t-inv F
  0.375000  0.125000 -0.125000    0.00195312  78 t-inv F
 -0.125000 -0.500000 -0.125000    0.00195312  79 t-inv F
 -0.500000  0.375000 -0.125000    0.00195312  80 t-inv F
  0.375000 -0.500000  0.125000    0.00195312  81 t-inv F
 -0.125000 -0.375000  0.125000    0.00195312  82 t-inv F
 -0.500000  0.125000  0.125000    0.00195312  83 t-inv F
 -0.375000 -0.500000  0.125000    0.00195312  84 t-inv F
  0.125000  0.375000  0.125000    0.00195312  85 t-inv F
 -0.500000 -0.125000  0.125000    0.00195312  86 t-inv F
 -0.250000 -0.250000 -0.125000    0.00195312  87 t-inv F
  0.250000 -0.500000 -0.125000    0.00195312  88 t-inv F
 -0.500000 -0.250000 -0.125000    0.00195312  89 t-inv F
  0.250000  0.250000 -0.125000    0.00195312  90 t-inv F
 -0.250000 -0.500000 -0.125000    0.00195312  91 t-inv F
 -0.500000  0.250000 -0.125000    0.00195312  92 t-inv F
 -0.375000 -0.250000 -0.125000    0.00195312  93 t-inv F
  0.250000  0.375000 -0.125000    0.00195312  94 t-inv F
 -0.375000 -0.375000 -0.125000    0.00195312  95 t-inv F
  0.375000  0.250000 -0.125000    0.00195312  96 t-inv F
 -0.250000 -0.375000 -0.125000    0.00195312  97 t-inv F
  0.375000  0.375000 -0.125000    0.00195312  98 t-inv F
  0.000000 -0.000000 -0.250000    0.00195312  99 t-inv F
 -0.125000  0.000000 -0.250000    0.00195312 100 t-inv F
  0.000000 -0.125000 -0.250000    0.00195312 101 t-inv F
  0.125000 -0.125000 -0.250000    0.00195312 102 t-inv F
  0.125000  0.000000 -0.250000    0.00195312 103 t-inv F
  0.000000  0.125000 -0.250000    0.00195312 104 t-inv F
 -0.125000  0.125000 -0.250000    0.00195312 105 t-inv F
 -0.250000 -0.000000 -0.250000    0.00195312 106 t-inv F
  0.000000 -0.250000 -0.250000    0.00195312 107 t-inv F
  0.250000 -0.250000 -0.250000    0.00195312 108 t-inv F
  0.250000  0.000000 -0.250000    0.00195312 109 t-inv F
  0.000000  0.250000 -0.250000    0.00195312 110 t-inv F
 -0.250000  0.250000 -0.250000    0.00195312 111 t-inv F
 -0.375000 -0.000000 -0.250000    0.00195312 112 t-inv F
  0.000000 -0.375000 -0.250000    0.00195312 113 t-inv F
  0.375000 -0.375000 -0.250000    0.00195312 114 t-inv F
  0.375000 -0.000000 -0.250000    0.00195312 115 t-inv F
  0.000000  0.375000 -0.250000    0.00195312 116 t-inv F
 -0.375000  0.375000 -0.250000    0.00195312 117 t-inv F
 -0.500000 -0.000000 -0.250000    0.00195312 118 t-inv F
  0.000000 -0.500000 -0.250000    0.00195312 119 t-inv F
 -0.500000 -0.500000 -0.250000    0.00195312 120 t-inv F
 -0.125000 -0.125000 -0.250000    0.00195312 121 t-inv F
  0.125000 -0.250000 -0.250000    0.00195312 122 t-inv F
  0.250000 -0.125000 -0.250000    0.00195312 123 t-inv F
  0.125000  0.125000 -0.250000    0.00195312 124 t-inv F
 -0.125000  0.250000 -0.250000    0.00195312 125 t-inv F
 -0.250000  0.125000 -0.250000    0.00195312 126 t-inv F
 -0.250000 -0.125000 -0.250000    0.00195312 127 t-inv F
  0.125000 -0.375000 -0.250000    0.00195312 128 t-inv F
  0.375000 -0.250000 -0.250000    0.00195312 129 t-inv F
  0.250000  0.125000 -0.250000    0.00195312 130 t-inv F
 -0.125000  0.375000 -0.250000    0.00195312 131 t-inv F
 -0.375000  0.250000 -0.250000    0.00195312 132 t-inv F
  0.250000 -0.375000  0.250000    0.00195312 133 t-inv F
 -0.125000 -0.250000  0.250000    0.00195312 134 t-inv F
 -0.375000  0.125000  0.250000    0.00195312 135 t-inv F
 -0.250000  0.375000  0.250000    0.00195312 136 t-inv F
  0.125000  0.250000  0.250000    0.00195312 137 t-inv F
  0.375000 -0.125000  0.250000    0.00195312 138 t-inv F
 -0.375000 -0.125000 -0.250000    0.00195312 139 t-inv F
  0.125000 -0.500000 -0.250000    0.00195312 140 t-inv F
 -0.500000 -0.375000 -0.250000    0.00195312 141 t-inv F
  0.375000  0.125000 -0.250000    0.00195312 142 t-inv F
 -0.125000 -0.500000 -0.250000    0.00195312 143 t-inv F
 -0.500000  0.375000 -0.250000    0.00195312 144 t-inv F
  0.375000 -0.500000  0.250000    0.00195312 145 t-inv F
 -0.125000 -0.375000  0.250000    0.00195312 146 t-inv F
 -0.500000  0.125000  0.250000    0.00195312 147 t-inv F
 -0.375000 -0.500000  0.250000    0.00195312 148 t-inv F
  0.125000  0.375000  0.250000    0.00195312 149 t-inv F
 -0.500000 -0.125000  0.250000    0.00195312 150 t-inv F
 -0.250000 -0.250000 -0.250000    0.00195312 151 t-inv F
  0.250000 -0.500000 -0.250000    0.00195312 152 t-inv F
 -0.500000 -0.250000 -0.250000    0.00195312 153 t-inv F
  0.250000  0.250000 -0.250000    0.00195312 154 t-inv F
 -0.250000 -0.500000 -0.250000    0.00195312 155 t-inv F
 -0.500000  0.250000 -0.250000    0.00195312 156 t-inv F
 -0.375000 -0.250000 -0.250000    0.00195312 157 t-inv F
  0.250000  0.375000 -0.250000    0.00195312 158 t-inv F
 -0.375000 -0.375000 -0.250000    0.00195312 159 t-inv F
  0.375000  0.250000 -0.250000    0.00195312 160 t-inv F
 -0.250000 -0.375000 -0.250000    0.00195312 161 t-inv F
  0.375000  0.375000 -0.250000    0.00195312 162 t-inv F
  0.000000  0.000000 -0.375000    0.00195312 163 t-inv F
 -0.125000 -0.000000 -0.375000    0.00195312 164 t-inv F
  0.000000 -0.125000 -0.375000    0.00195312 165 t-inv F
  0.125000 -0.125000 -0.375000    0.00195312 166 t-inv F
  0.125000 -0.000000 -0.375000    0.00195312 167 t-inv F
  0.000000  0.125000 -0.375000    0.00195312 168 t-inv F
 -0.125000  0.125000 -0.375000    0.00195312 169 t-inv F
 -0.250000  0.000000 -0.375000    0.00195312 170 t-inv F
  0.000000 -0.250000 -0.375000    0.00195312 171 t-inv F
  0.250000 -0.250000 -0.375000    0.00195312 172 t-inv F
  0.250000  0.000000 -0.375000    0.00195312 173 t-inv F
  0.000000  0.250000 -0.375000    0.00195312 174 t-inv F
 -0.250000  0.250000 -0.375000    0.00195312 175 t-inv F
 -0.375000  0.000000 -0.375000    0.00195312 176 t-inv F
  0.000000 -0.375000 -0.375000    0.00195312 177 t-inv F
  0.375000 -0.375000 -0.375000    0.00195312 178 t-inv F
  0.375000  0.000000 -0.375000    0.00195312 179 t-inv F
  0.000000  0.375000 -0.375000    0.00195312 180 t-inv F
 -0.375000  0.375000 -0.375000    0.00195312 181 t-inv F
 -0.500000 -0.000000 -0.375000    0.00195312 182 t-inv F
  0.000000 -0.500000 -0.375000    0.00195312 183 t-inv F
 -0.500000 -0.500000 -0.375000    0.00195312 184 t-inv F
 -0.125000 -0.125000 -0.375000    0.00195312 185 t-inv F
  0.125000 -0.250000 -0.375000    0.00195312 186 t-inv F
  0.250000 -0.125000 -0.375000    0.00195312 187 t-inv F
  0.125000  0.125000 -0.375000    0.00195312 188 t-inv F
 -0.125000  0.250000 -0.375000    0.00195312 189 t-inv F
 -0.250000  0.125000 -0.375000    0.00195312 190 t-inv F
 -0.250000 -0.125000 -0.375000    0.00195312 191 t-inv F
  0.125000 -0.375000 -0.375000    0.00195312 192 t-inv F
  0.375000 -0.250000 -0.375000    0.00195312 193 t-inv F
  0.250000  0.125000 -0.375000    0.00195312 194 t-inv F
 -0.125000  0.375000 -0.375000    0.00195312 195 t-inv F
 -0.375000  0.250000 -0.375000    0.00195312 196 t-inv F
  0.250000 -0.375000  0.375000    0.00195312 197 t-inv F
 -0.125000 -0.250000  0.375000    0.00195312 198 t-inv F
 -0.375000  0.125000  0.375000    0.00195312 199 t-inv F
 -0.250000  0.375000  0.375000    0.00195312 200 t-inv F
  0.125000  0.250000  0.375000    0.00195312 201 t-inv F
  0.375000 -0.125000  0.375000    0.00195312 202 t-inv F
 -0.375000 -0.125000 -0.375000    0.00195312 203 t-inv F
  0.125000 -0.500000 -0.375000    0.00195312 204 t-inv F
 -0.500000 -0.375000 -0.375000    0.00195312 205 t-inv F
  0.375000  0.125000 -0.375000    0.00195312 206 t-inv F
 -0.125000 -0.500000 -0.375000    0.00195312 207 t-inv F
 -0.500000  0.375000 -0.375000    0.00195312 208 t-inv F
  0.375000 -0.500000  0.375000    0.00195312 209 t-inv F
 -0.125000 -0.375000  0.375000    0.00195312 210 t-inv F
 -0.500000  0.125000  0.375000    0.00195312 211 t-inv F
 -0.375000 -0.500000  0.375000    0.00195312 212 t-inv F
  0.125000  0.375000  0.375000    0.00195312 213 t-inv F
 -0.500000 -0.125000  0.375000    0.00195312 214 t-inv F
 -0.250000 -0.250000 -0.375000    0.00195312 215 t-inv F
  0.250000 -0.500000 -0.375000    0.00195312 216 t-inv F
 -0.500000 -0.250000 -0.375000    0.00195312 217 t-inv F
  0.250000  0.250000 -0.375000    0.00195312 218 t-inv F
 -0.250000 -0.500000 -0.375000    0.00195312 219 t-inv F
 -0.500000  0.250000 -0.375000    0.00195312 220 t-inv F
 -0.375000 -0.250000 -0.375000    0.00195312 221 t-inv F
  0.250000  0.375000 -0.375000    0.00195312 222 t-inv F
 -0.375000 -0.375000 -0.375000    0.00195312 223 t-inv F
  0.375000  0.250000 -0.375000    0.00195312 224 t-inv F
 -0.250000 -0.375000 -0.375000    0.00195312 225 t-inv F
  0.375000  0.375000 -0.375000    0.00195312 226 t-inv F
 -0.125000 -0.000000 -0.500000    0.00195312 228 t-inv F
  0.000000 -0.125000 -0.500000    0.00195312 229 t-inv F
  0.125000 -0.125000 -0.500000    0.00195312 230 t-inv F
 -0.250000  0.000000 -0.500000    0.00195312 231 t-inv F
  0.000000 -0.250000 -0.500000    0.00195312 232 t-inv F
  0.250000 -0.250000 -0.500000    0.00195312 233 t-inv F
 -0.375000  0.000000 -0.500000    0.00195312 234 t-inv F
  0.000000 -0.375000 -0.500000    0.00195312 235 t-inv F
  0.375000 -0.375000 -0.500000    0.00195312 236 t-inv F
 -0.125000 -0.125000 -0.500000    0.00195312 240 t-inv F
  0.125000 -0.250000 -0.500000    0.00195312 241 t-inv F
  0.250000 -0.125000 -0.500000    0.00195312 242 t-inv F
 -0.250000 -0.125000 -0.500000    0.00195312 243 t-inv F
  0.125000 -0.375000 -0.500000    0.00195312 244 t-inv F
  0.375000 -0.250000 -0.500000    0.00195312 245 t-inv F
  0.250000 -0.375000 -0.500000    0.00195312 246 t-inv F
 -0.125000 -0.250000 -0.500000    0.00195312 247 t-inv F
 -0.375000  0.125000 -0.500000    0.00195312 248 t-inv F
 -0.375000 -0.125000 -0.500000    0.00195312 249 t-inv F
  0.125000 -0.500000 -0.500000    0.00195312 250 t-inv F
 -0.500000 -0.375000 -0.500000    0.00195312 251 t-inv F
  0.375000 -0.500000 -0.500000    0.00195312 252 t-inv F
 -0.125000 -0.375000 -0.500000    0.00195312 253 t-inv F
 -0.500000  0.125000 -0.500000    0.00195312 254 t-inv F
 -0.250000 -0.250000 -0.500000    0.00195312 255 t-inv F
  0.250000 -0.500000 -0.500000    0.00195312 256 t-inv F
 -0.500000 -0.250000 -0.500000    0.00195312 257 t-inv F
 -0.375000 -0.250000 -0.500000    0.00195312 258 t-inv F
  0.250000  0.375000 -0.500000    0.00195312 259 t-inv F
 -0.375000 -0.375000 -0.500000    0.00195312 260 t-inv F


--------------------------------------------------------------------------------------------------------




 Dimension of arrays:
   k-points           NKPTS =    260   k-points in BZ     NKDIM =    260   number of bands    NBANDS=    144
   number of dos      NEDOS =    301   number of ions     NIONS =      6
   non local maximal  LDIM  =      6   non local SUM 2l+1 LMDIM =     18
   total plane-waves  NPLWV =  21600
   max r-space proj   IRMAX =      1   max aug-charges    IRDMAX=   4496
   dimension x,y,z NGX =    20 NGY =   20 NGZ =   54
   dimension x,y,z NGXF=    40 NGYF=   40 NGZF=  108
   support grid    NGXF=    40 NGYF=   40 NGZF=  108
   ions per type =               6
   NGX,Y,Z   is equivalent  to a cutoff of   7.25,  7.25,  7.37 a.u.
   NGXF,Y,Z  is equivalent  to a cutoff of  14.49, 14.49, 14.74 a.u.

 SYSTEM =  Bi                                      
 POSCAR =  Bi6                                     

 Startparameter for this run:
   NWRITE =      2    write-flag & timer
   PREC   = normal    normal or accurate (medium, high low for compatibility)
   ISTART =      1    job   : 0-new  1-cont  2-samecut
   ICHARG =      0    charge: 1-file 2-atom 10-const
   ISPIN  =      1    spin polarized calculation?
   LNONCOLLINEAR =      T non collinear calculations
   LSORBIT =      T    spin-orbit coupling
   INIWAV =      1    electr: 0-lowe 1-rand  2-diag
   LASPH  =      F    aspherical Exc in radial PAW
 Electronic Relaxation 1
   ENCUT  =  315.7 eV  23.20 Ry    4.82 a.u.   6.65  6.65 17.65*2*pi/ulx,y,z
   ENINI  =  315.7     initial cutoff
   ENAUG  =  442.9 eV  augmentation charge cutoff
   NELM   =     60;   NELMIN=  2; NELMDL=  0     # of ELM steps 
   EDIFF  = 0.1E-03   stopping-criterion for ELM
   LREAL  =      F    real-space projection
   NLSPLINE    = F    spline interpolate recip. space projectors
   LCOMPAT=      F    compatible to vasp.4.4
   GGA_COMPAT  = T    GGA compatible to vasp.4.4-vasp.4.6
   LMAXPAW     = -100 max onsite density
   LMAXMIX     =    2 max onsite mixed and CHGCAR
   VOSKOWN=      0    Vosko Wilk Nusair interpolation
   ROPT   =    0.00000
 Ionic relaxation
   EDIFFG = 0.1E-02   stopping-criterion for IOM
   NSW    =      0    number of steps for IOM
   NBLOCK =      1;   KBLOCK =      1    inner block; outer block 
   IBRION =     -1    ionic relax: 0-MD 1-quasi-New 2-CG
   NFREE  =      0    steps in history (QN), initial steepest desc. (CG)
   ISIF   =      2    stress and relaxation
   IWAVPR =     10    prediction:  0-non 1-charg 2-wave 3-comb
   ISYM   =      2    0-nonsym 1-usesym 2-fastsym
   LCORR  =      T    Harris-Foulkes like correction to forces

   POTIM  = 0.5000    time-step for ionic-motion
   TEIN   =    0.0    initial temperature
   TEBEG  =    0.0;   TEEND  =   0.0 temperature during run
   SMASS  =  -3.00    Nose mass-parameter (am)
   estimated Nose-frequenzy (Omega)   =  0.10E-29 period in steps = 0.13E+47 mass=  -0.481E-27a.u.
   SCALEE = 1.0000    scale energy and forces
   NPACO  =    256;   APACO  = 10.0  distance and # of slots for P.C.
   PSTRESS=    0.0 pullay stress

  Mass of Ions in am
   POMASS = 208.98
  Ionic Valenz
   ZVAL   =  15.00
  Atomic Wigner-Seitz radii
   RWIGS  =  -1.00
  virtual crystal weights 
   VCA    =   1.00
   NELECT =      90.0000    total number of electrons
   NUPDOWN=      -1.0000    fix difference up-down

 DOS related values:
   EMIN   =  10.00;   EMAX   =-10.00  energy-range for DOS
   EFERMI =   0.00;   METHOD = LEGACY      
   ISMEAR =     0;   SIGMA  =   0.05  broadening in eV -4-tet -1-fermi 0-gaus

 Electronic relaxation 2 (details)
   IALGO  =     38    algorithm
   LDIAG  =      T    sub-space diagonalisation (order eigenvalues)
   LSUBROT=      F    optimize rotation matrix (better conditioning)
   TURBO    =      0    0=normal 1=particle mesh
   IRESTART =      0    0=no restart 2=restart with 2 vectors
   NREBOOT  =      0    no. of reboots
   NMIN     =      0    reboot dimension
   EREF     =   0.00    reference energy to select bands
   IMIX   =      4    mixing-type and parameters
     AMIX     =   0.40;   BMIX     =  1.00
     AMIX_MAG =   1.60;   BMIX_MAG =  1.00
     AMIN     =   0.10
     WC   =   100.;   INIMIX=   1;  MIXPRE=   1;  MAXMIX= -45

 Intra band minimization:
   WEIMIN = 0.0000     energy-eigenvalue tresh-hold
   EBREAK =  0.17E-06  absolut break condition
   DEPER  =   0.30     relativ break condition  

   TIME   =   0.40     timestep for ELM

  volume/ion in A,a.u.               =      37.02       249.85
  Fermi-wavevector in a.u.,A,eV,Ry     =   1.211377  2.289170 19.965650  1.467434
  Thomas-Fermi vector in A             =   2.346894
 
 Write flags
   LWAVE        =      T    write WAVECAR
   LDOWNSAMPLE  =      F    k-point downsampling of WAVECAR
   LCHARG       =      T    write CHGCAR
   LVTOT        =      F    write LOCPOT, total local potential
   LVHAR        =      F    write LOCPOT, Hartree potential only
   WRT_POTENTIAL= false  ! write potential to hdf5 file
   LELF         =      F    write electronic localiz. function (ELF)
   LORBIT       =      0    0 simple, 1 ext, 2 COOP (PROOUT), +10 PAW based schemes


 Dipole corrections
   LMONO      =      F    monopole corrections only (constant potential shift)
   LDIPOL     =      F    correct potential (dipole corrections)
   IDIPOL     =      0    1-x, 2-y, 3-z, 4-all directions 
   EPSILON    =  1.0000000 bulk dielectric constant
   LVACPOTAV  =      F  vacuum potentials using an averaging scheme for the charge density
   VACPOTFLAT =  0.1000000 required flatness to determine vacuum potential
 Exchange correlation treatment:
   GGA     = PE    functional components
   XC_C    = 1    coefficients multiplying the functional components
   LIBXC   =     F    Libxc                    
   VOSKOWN =     0    Vosko Wilk Nusair interpolation
   LHFCALC =     F    Hartree Fock is set to
   LHFONE  =     F    Hartree Fock one center treatment
   AEXX    =    0.0000 exact exchange contribution

 Parameters of functionals:
   PE:
     No parameter
 
 Van der Waals corrections
   IVDW    =     0    specifies the selected vdW correction

 Linear response parameters
   LEPSILON=     F    determine dielectric tensor
   LRPA    =     F    only Hartree local field effects (RPA)
   LNABLA  =     F    use nabla operator in PAW spheres
   LVEL    =     F    velocity operator in full k-point grid
   CSHIFT  =0.1000    complex shift for real part using Kramers Kronig
   OMEGAMAX=  -1.0    maximum frequency
   DEG_THRESHOLD= 0.2000000E-02 threshold for treating states as degnerate
   RTIME   =   -0.100 relaxation time in fs
  (WPLASMAI=    0.000 imaginary part of plasma frequency in eV, 0.658/RTIME)
   DFIELD  = 0.0000000 0.0000000 0.0000000 field for delta impulse in time
 
  Optional k-point grid parameters
   LKPOINTS_OPT  =     T    use optional k-point grid
   KPOINTS_OPT_MODE=     1    mode for optional k-point grid
 
 Orbital magnetization related:
   ORBITALMAG=     F  switch on orbital magnetization
   LCHIMAG   =     F  perturbation theory with respect to B field
   DQ        =  0.001000  dq finite difference perturbation B field
   LLRAUG    =     F  two centre corrections for induced B field
   LBONE     =     F  B-component reconstruction in AE one-centre
   LVGVCALC  =     T  calculate vGv susceptibility
   LVGVAPPL  =     F  apply vGv susceptibility instead of pGv for G=0

 Random number generation:
   RANDOM_GENERATOR = DEFAULT
   PCG_SEED         = not used


--------------------------------------------------------------------------------------------------------


 Static calculation
 charge density and potential will be updated during run
 non collinear spin polarized calculation
 Variant of blocked Davidson
 Davidson routine will perform the subspace rotation
 perform sub-space diagonalisation
    after iterative eigenvector-optimisation
 modified Broyden-mixing scheme, WC =      100.0
 initial mixing is a Kerker type mixing with AMIX =  0.4000 and BMIX =      1.0000
 Hartree-type preconditioning will be used
 using additional bands           99
 reciprocal scheme for non local part
 use partial core corrections
 calculate Harris-corrections to forces 
   (improved forces if not selfconsistent)
 use gradient corrections 
 use of overlap-Matrix (Vanderbilt PP)
 Gauss-broadening in eV      SIGMA  =   0.05


--------------------------------------------------------------------------------------------------------


  energy-cutoff  :      315.69
  volume of cell :      222.14
      direct lattice vectors                 reciprocal lattice vectors
     4.588660000  0.000000000  0.000000000     0.217928546  0.125821104  0.000000000
    -2.294330000  3.973896129  0.000000000     0.000000000  0.251642209  0.000000000
     0.000000000  0.000000000 12.182230000    -0.000000000 -0.000000000  0.082086777

  length of vectors
     4.588660000  4.588660000 12.182230000     0.251642209  0.251642209  0.082086777


 
 old parameters found on file WAVECAR:
  energy-cutoff  :      315.69
  volume of cell :      222.14
      direct lattice vectors                 reciprocal lattice vectors
     4.588660000  0.000000000  0.000000000     0.217928546  0.125821104  0.000000000
    -2.294330000  3.973896129  0.000000000     0.000000000  0.251642209  0.000000000
     0.000000000  0.000000000 12.182230000    -0.000000000 -0.000000000  0.082086777

  length of vectors

 
 k-points in units of 2pi/SCALE and weight: Automatic kpoint scheme                 
   0.00000000  0.00000000  0.00000000       0.002
   0.02724107  0.01572764  0.00000000       0.004
   0.00000000  0.03145528  0.00000000       0.004
  -0.02724107  0.01572764  0.00000000       0.004
   0.05448214  0.03145528  0.00000000       0.004
   0.00000000  0.06291055  0.00000000       0.004
  -0.05448214  0.03145528  0.00000000       0.004
   0.08172320  0.04718291  0.00000000       0.004
   0.00000000  0.09436583  0.00000000       0.004
  -0.08172320  0.04718291  0.00000000       0.004
   0.10896427  0.06291055  0.00000000       0.002
   0.00000000  0.12582110  0.00000000       0.002
   0.10896427  0.18873166  0.00000000       0.002
   0.02724107  0.04718291  0.00000000       0.004
  -0.02724107  0.04718291  0.00000000       0.004
  -0.05448214  0.00000000  0.00000000       0.004
   0.05448214  0.06291055  0.00000000       0.004
  -0.02724107  0.07863819  0.00000000       0.004
  -0.08172320  0.01572764  0.00000000       0.004
  -0.05448214  0.06291055  0.00000000       0.004
   0.02724107  0.07863819  0.00000000       0.004
   0.08172320  0.01572764  0.00000000       0.004
   0.08172320  0.07863819  0.00000000       0.004
  -0.02724107  0.11009347  0.00000000       0.004
   0.10896427  0.15727638  0.00000000       0.004
  -0.08172320  0.07863819  0.00000000       0.004
   0.02724107  0.11009347  0.00000000       0.004
   0.10896427  0.03145528  0.00000000       0.004
   0.05448214  0.09436583  0.00000000       0.004
  -0.05448214  0.09436583  0.00000000       0.004
   0.10896427  0.12582110  0.00000000       0.004
   0.08172320  0.11009347  0.00000000       0.004
  -0.05448214 -0.12582110  0.00000000       0.004
   0.08172320  0.14154874  0.00000000       0.004
  -0.00000000 -0.00000000  0.01026085       0.004
   0.02724107  0.01572764  0.01026085       0.004
  -0.00000000  0.03145528  0.01026085       0.004
  -0.02724107  0.01572764  0.01026085       0.004
  -0.02724107 -0.01572764  0.01026085       0.004
  -0.00000000 -0.03145528  0.01026085       0.004
   0.02724107 -0.01572764  0.01026085       0.004
   0.05448214  0.03145528  0.01026085       0.004
  -0.00000000  0.06291055  0.01026085       0.004
  -0.05448214  0.03145528  0.01026085       0.004
  -0.05448214 -0.03145528  0.01026085       0.004
  -0.00000000 -0.06291055  0.01026085       0.004
   0.05448214 -0.03145528  0.01026085       0.004
   0.08172320  0.04718291  0.01026085       0.004
  -0.00000000  0.09436583  0.01026085       0.004
  -0.08172320  0.04718291  0.01026085       0.004
  -0.08172320 -0.04718291  0.01026085       0.004
  -0.00000000 -0.09436583  0.01026085       0.004
[...]
  0.000   0.000   0.000   0.000  -0.000   0.000   0.000   0.000  -0.000   0.000  -0.000   0.000   0.000  -0.000   0.000  -0.000
  0.000  -0.000  -0.000   0.000   0.000   0.000  -0.000  -0.000  -0.000  -0.000   0.000   0.000   0.000   0.000   0.000  -0.000
 -0.000   0.000   0.000  -0.000  -0.000  -0.000   0.000   0.000  -0.000  -0.000   0.000   0.000   0.000   0.000   0.000   0.000
  0.000  -0.000  -0.000  -0.000   0.000  -0.000   0.000  -0.000   0.000   0.000   0.000   0.000   0.000  -0.000  -0.000  -0.000
 -0.000  -0.000  -0.000  -0.000   0.000  -0.000  -0.000   0.000   0.000   0.000   0.000   0.000   0.000  -0.000  -0.000  -0.000
 -0.000  -0.000   0.000  -0.000   0.000   0.000   0.000   0.000   0.000   0.000   0.000   0.000   0.000   0.000   0.000  -0.000
 -0.000  -0.000  -0.000   0.000  -0.000   0.000   0.000  -0.000   0.000   0.000  -0.000  -0.000   0.000  -0.000  -0.000  -0.000
  0.000   0.000   0.000  -0.000   0.000   0.000  -0.000   0.000   0.000   0.000  -0.000  -0.000   0.000  -0.000   0.000   0.000
  0.000   0.000  -0.000   0.000  -0.000  -0.000   0.000  -0.000  -0.000   0.000  -0.000  -0.000  -0.000  -0.000   0.000   0.000
  0.000   0.000   0.000  -0.000   0.000  -0.000  -0.000   0.000  -0.000  -0.000   0.000  -0.000  -0.000   0.000   0.000   0.000
 -0.000  -0.000  -0.000   0.000  -0.000   0.000   0.000  -0.000  -0.000   0.000   0.000  -0.000  -0.000  -0.000  -0.000   0.000
 total augmentation occupancy for first ion, spin component:           3
  0.000  -0.000  -0.000   0.000   0.000  -0.000  -0.000  -0.000   0.000   0.000   0.000   0.000   0.000  -0.000   0.000  -0.000
 -0.000   0.000   0.000   0.000   0.000  -0.000  -0.000   0.000   0.000   0.000  -0.000  -0.000  -0.000   0.000  -0.000   0.000
 -0.000   0.000   0.000  -0.000   0.000  -0.000  -0.000   0.000  -0.000   0.000  -0.000  -0.000  -0.000  -0.000   0.000   0.000
  0.000   0.000  -0.000   0.000   0.000   0.000  -0.000  -0.000   0.000   0.000   0.000   0.000  -0.000  -0.000  -0.000   0.000
  0.000   0.000   0.000   0.000   0.000  -0.000   0.000   0.000   0.000  -0.000   0.000   0.000   0.000   0.000   0.000  -0.000
 -0.000  -0.000  -0.000   0.000  -0.000  -0.000  -0.000   0.000   0.000   0.000   0.000   0.000  -0.000   0.000   0.000   0.000
 -0.000  -0.000  -0.000  -0.000   0.000  -0.000  -0.000  -0.000  -0.000   0.000   0.000   0.000   0.000   0.000   0.000  -0.000
 -0.000   0.000   0.000  -0.000   0.000   0.000  -0.000   0.000   0.000   0.000  -0.000   0.000   0.000  -0.000  -0.000  -0.000
  0.000   0.000  -0.000   0.000   0.000   0.000  -0.000   0.000  -0.000   0.000   0.000  -0.000  -0.000   0.000   0.000   0.000
  0.000   0.000   0.000   0.000  -0.000   0.000   0.000   0.000   0.000  -0.000  -0.000  -0.000   0.000   0.000   0.000   0.000
  0.000  -0.000  -0.000   0.000   0.000   0.000   0.000  -0.000   0.000  -0.000   0.000   0.000  -0.000  -0.000   0.000   0.000
  0.000  -0.000  -0.000   0.000   0.000   0.000   0.000   0.000  -0.000  -0.000   0.000   0.000   0.000  -0.000   0.000  -0.000
  0.000  -0.000  -0.000  -0.000   0.000  -0.000   0.000   0.000  -0.000   0.000  -0.000   0.000  -0.000  -0.000  -0.000  -0.000
 -0.000   0.000  -0.000  -0.000   0.000   0.000   0.000  -0.000   0.000   0.000  -0.000  -0.000  -0.000  -0.000   0.000  -0.000
  0.000  -0.000   0.000  -0.000   0.000   0.000   0.000  -0.000   0.000   0.000   0.000   0.000  -0.000   0.000   0.000  -0.000
 -0.000   0.000   0.000   0.000  -0.000   0.000  -0.000  -0.000   0.000   0.000   0.000  -0.000  -0.000  -0.000  -0.000   0.000
  0.000  -0.000   0.000   0.000  -0.000  -0.000  -0.000   0.000  -0.000  -0.000   0.000  -0.000   0.000   0.000  -0.000   0.000
 -0.000   0.000  -0.000   0.000  -0.000  -0.000  -0.000  -0.000   0.000  -0.000  -0.000  -0.000   0.000  -0.000  -0.000   0.000
 total augmentation occupancy for first ion, spin component:           4
  0.000   0.000   0.000   0.000   0.000  -0.000  -0.000   0.000   0.000   0.000   0.000   0.000   0.000   0.000   0.000  -0.000
  0.000   0.000   0.000   0.000   0.000   0.000  -0.000  -0.000   0.000   0.000  -0.000  -0.000  -0.000  -0.000   0.000   0.000
  0.000   0.000   0.000   0.000   0.000  -0.000   0.000   0.000   0.000   0.000  -0.000  -0.000   0.000  -0.000  -0.000  -0.000
  0.000   0.000   0.000   0.000   0.000   0.000   0.000  -0.000   0.000   0.000  -0.000  -0.000   0.000  -0.000  -0.000  -0.000
  0.000   0.000   0.000   0.000  -0.000   0.000   0.000   0.000  -0.000  -0.000   0.000   0.000   0.000   0.000  -0.000  -0.000
 -0.000   0.000  -0.000   0.000   0.000   0.000  -0.000  -0.000   0.000   0.000   0.000   0.000  -0.000  -0.000   0.000  -0.000
 -0.000  -0.000   0.000   0.000   0.000  -0.000  -0.000   0.000   0.000   0.000  -0.000  -0.000   0.000  -0.000  -0.000  -0.000
  0.000  -0.000   0.000  -0.000   0.000  -0.000   0.000   0.000   0.000  -0.000  -0.000   0.000  -0.000  -0.000  -0.000   0.000
  0.000   0.000   0.000   0.000  -0.000   0.000   0.000   0.000  -0.000  -0.000  -0.000  -0.000  -0.000  -0.000   0.000   0.000
  0.000   0.000   0.000   0.000  -0.000   0.000   0.000  -0.000  -0.000   0.000   0.000   0.000   0.000  -0.000  -0.000  -0.000
  0.000  -0.000  -0.000  -0.000   0.000   0.000  -0.000  -0.000  -0.000   0.000   0.000   0.000   0.000  -0.000   0.000  -0.000
  0.000  -0.000  -0.000  -0.000   0.000   0.000  -0.000   0.000  -0.000   0.000   0.000   0.000   0.000  -0.000  -0.000   0.000
  0.000  -0.000   0.000   0.000   0.000  -0.000   0.000  -0.000  -0.000   0.000   0.000   0.000   0.000  -0.000   0.000  -0.000
  0.000  -0.000  -0.000  -0.000   0.000  -0.000  -0.000  -0.000  -0.000  -0.000  -0.000  -0.000  -0.000  -0.000  -0.000   0.000
  0.000   0.000  -0.000  -0.000  -0.000   0.000  -0.000  -0.000   0.000  -0.000   0.000  -0.000   0.000  -0.000   0.000  -0.000
 -0.000   0.000  -0.000  -0.000  -0.000  -0.000  -0.000   0.000   0.000  -0.000  -0.000   0.000  -0.000   0.000  -0.000  -0.000
 -0.000   0.000   0.000   0.000  -0.000   0.000   0.000   0.000   0.000   0.000   0.000   0.000  -0.000  -0.000  -0.000   0.000
 -0.000  -0.000   0.000   0.000   0.000  -0.000   0.000   0.000   0.000  -0.000  -0.000   0.000  -0.000   0.000  -0.000   0.000


------------------------ aborting loop because EDIFF is reached ----------------------------------------


    CHARGE:  cpu time      0.2902: real time      0.2900
    FORLOC:  cpu time      0.0004: real time      0.0004
    FORNL :  cpu time      2.6289: real time      2.6287
    STRESS:  cpu time      4.3483: real time      4.3478
    FORCOR:  cpu time      0.0110: real time      0.0113
    FORHAR:  cpu time      0.0013: real time      0.0014
    MIXING:  cpu time      0.0010: real time      0.0010
    OFIELD:  cpu time      0.0000: real time      0.0001

  FORCE on cell =-STRESS in cart. coord.  units (eV):
  Direction    XX          YY          ZZ          XY          YZ          ZX
  --------------------------------------------------------------------------------------
  Alpha Z   277.73999   277.73999   277.73999
  Ewald   -2698.78997 -2698.78997 -2829.75082    -0.00000    -0.00000     0.00000
  Hartree  1129.34348  1129.34312  1042.26128     0.00030     0.00005    -0.00024
  E(xc)    -436.71082  -436.71095  -436.73805    -0.00012     0.00000    -0.00000
  Local    -560.76376  -560.76333  -344.29210    -0.00044    -0.00004     0.00030
  n-local   637.11183   637.11182   637.05183    -0.00015     0.00002     0.00010
  augment   794.84813   794.84760   794.52920    -0.00067     0.00004    -0.00006
  Kinetic   857.50967   857.50959   859.01021     0.00019    -0.00012     0.00014
  Fock        0.00000     0.00000     0.00000     0.00000     0.00000     0.00000
  -------------------------------------------------------------------------------------
  Total       0.28856     0.28788    -0.18845    -0.00088    -0.00005     0.00023
  in kB       2.08124     2.07635    -1.35915    -0.00634    -0.00034     0.00169
  external pressure =        0.93 kB  Pullay stress =        0.00 kB


 VOLUME and BASIS-vectors are now :
 -----------------------------------------------------------------------------
  energy-cutoff  :      315.69
  volume of cell :      222.14
      direct lattice vectors                 reciprocal lattice vectors
     4.588660000  0.000000000  0.000000000     0.217928546  0.125821104  0.000000000
    -2.294330000  3.973896129  0.000000000     0.000000000  0.251642209  0.000000000
     0.000000000  0.000000000 12.182230000    -0.000000000 -0.000000000  0.082086777

  length of vectors
     4.588660000  4.588660000 12.182230000     0.251642209  0.251642209  0.082086777


 FORCES acting on ions
    electron-ion (+dipol)            ewald-force                    non-local-force                 convergence-correction
 -----------------------------------------------------------------------------------------------
   0.727E-03 0.833E-03 -.787E+02   -.541E-11 0.314E-11 0.839E+02   -.311E-04 0.684E-04 -.528E+01   -.694E-03 -.917E-03 -.130E-01
   -.727E-03 -.833E-03 0.787E+02   0.541E-11 -.320E-11 -.839E+02   0.311E-04 -.684E-04 0.528E+01   0.694E-03 0.917E-03 0.130E-01
   0.714E-03 0.830E-03 -.787E+02   0.215E-10 -.124E-10 0.839E+02   -.257E-04 0.586E-04 -.528E+01   -.682E-03 -.903E-03 -.123E-01
   -.720E-03 -.845E-03 0.786E+02   0.156E-10 -.898E-11 -.839E+02   0.405E-04 -.677E-04 0.528E+01   0.691E-03 0.915E-03 0.123E-01
   0.720E-03 0.845E-03 -.786E+02   -.156E-10 0.899E-11 0.839E+02   -.405E-04 0.677E-04 -.528E+01   -.691E-03 -.915E-03 -.123E-01
   -.714E-03 -.830E-03 0.787E+02   -.215E-10 0.124E-10 -.839E+02   0.257E-04 -.586E-04 0.528E+01   0.682E-03 0.903E-03 0.123E-01
 -----------------------------------------------------------------------------------------------
   -.722E-11 -.351E-11 0.960E-11   0.332E-15 -.508E-13 -.114E-12   0.000E+00 0.000E+00 0.888E-15   -.120E-12 0.483E-13 0.517E-14
 
 
 POSITION                                       TOTAL-FORCE (eV/Angst)
 -----------------------------------------------------------------------------------
      0.00000      0.00000      2.84747         0.000002     -0.000016     -0.032971
      0.00000      0.00000      9.33476        -0.000002      0.000016      0.032971
      2.29433      1.32463      6.90818         0.000006     -0.000015     -0.033175
      2.29433      1.32463      1.21323         0.000011      0.000002      0.033793
      0.00000      2.64926     10.96900        -0.000011     -0.000002     -0.033793
      0.00000      2.64926      5.27405        -0.000006      0.000015      0.033175
 -----------------------------------------------------------------------------------
    total drift:                               -0.000000     -0.000000      0.000000


--------------------------------------------------------------------------------------------------------



  FREE ENERGIE OF THE ION-ELECTRON SYSTEM (eV)
  ---------------------------------------------------
  free  energy   TOTEN  =       -28.24253588 eV

  energy  without entropy=      -28.24213237  energy(sigma->0) =      -28.24233412
 


--------------------------------------------------------------------------------------------------------


    POTLOK:  cpu time      0.0211: real time      0.0211


--------------------------------------------------------------------------------------------------------


 writing wavefunctions
     LOOP+:  cpu time    219.3464: real time    219.4197
    4ORBIT:  cpu time      0.0000: real time      0.0000

 Spin-Orbit-Coupling matrix elements

 Ion:    1  E_soc:     -1.7146003
 l=   1
     0.0000000    -0.2206780    -0.2209913
    -0.2206780     0.0000000    -0.2206779
    -0.2209913    -0.2206779     0.0000000
 l=   2
     0.0000000    -0.0129679     0.0000000    -0.0129679    -0.0520271
    -0.0129679     0.0000000    -0.0390635    -0.0129276    -0.0129679
     0.0000000    -0.0390635     0.0000000    -0.0390634     0.0000000
    -0.0129679    -0.0129276    -0.0390634     0.0000000    -0.0129678
    -0.0520271    -0.0129679     0.0000000    -0.0129678     0.0000000
 l=   3
     0.0000000     0.0000000     0.0000000     0.0000000     0.0000000     0.0000000     0.0000000
     0.0000000     0.0000000     0.0000000     0.0000000     0.0000000     0.0000000     0.0000000
     0.0000000     0.0000000     0.0000000     0.0000000     0.0000000     0.0000000     0.0000000
     0.0000000     0.0000000     0.0000000     0.0000000     0.0000000     0.0000000     0.0000000
     0.0000000     0.0000000     0.0000000     0.0000000     0.0000000     0.0000000     0.0000000
     0.0000000     0.0000000     0.0000000     0.0000000     0.0000000     0.0000000     0.0000000
     0.0000000     0.0000000     0.0000000     0.0000000     0.0000000     0.0000000     0.0000000

 Ion:    2  E_soc:     -1.7146003
 l=   1
     0.0000000    -0.2206780    -0.2209913
    -0.2206780     0.0000000    -0.2206779
    -0.2209913    -0.2206779     0.0000000
 l=   2
     0.0000000    -0.0129679     0.0000000    -0.0129679    -0.0520271
    -0.0129679     0.0000000    -0.0390635    -0.0129276    -0.0129679
     0.0000000    -0.0390635     0.0000000    -0.0390634     0.0000000
    -0.0129679    -0.0129276    -0.0390634     0.0000000    -0.0129678
    -0.0520271    -0.0129679     0.0000000    -0.0129678     0.0000000
 l=   3
     0.0000000     0.0000000     0.0000000     0.0000000     0.0000000     0.0000000     0.0000000
     0.0000000     0.0000000     0.0000000     0.0000000     0.0000000     0.0000000     0.0000000
     0.0000000     0.0000000     0.0000000     0.0000000     0.0000000     0.0000000     0.0000000
     0.0000000     0.0000000     0.0000000     0.0000000     0.0000000     0.0000000     0.0000000
     0.0000000     0.0000000     0.0000000     0.0000000     0.0000000     0.0000000     0.0000000
     0.0000000     0.0000000     0.0000000     0.0000000     0.0000000     0.0000000     0.0000000
     0.0000000     0.0000000     0.0000000     0.0000000     0.0000000     0.0000000     0.0000000

 Ion:    3  E_soc:     -1.7145734
 l=   1
     0.0000000    -0.2206748    -0.2209827
    -0.2206748     0.0000000    -0.2206747
    -0.2209827    -0.2206747     0.0000000
 l=   2
     0.0000000    -0.0129679     0.0000000    -0.0129680    -0.0520274
    -0.0129679     0.0000000    -0.0390639    -0.0129278    -0.0129680
     0.0000000    -0.0390639     0.0000000    -0.0390637     0.0000000
    -0.0129680    -0.0129278    -0.0390637     0.0000000    -0.0129679
    -0.0520274    -0.0129680     0.0000000    -0.0129679     0.0000000
 l=   3
     0.0000000     0.0000000     0.0000000     0.0000000     0.0000000     0.0000000     0.0000000
     0.0000000     0.0000000     0.0000000     0.0000000     0.0000000     0.0000000     0.0000000
     0.0000000     0.0000000     0.0000000     0.0000000     0.0000000     0.0000000     0.0000000
     0.0000000     0.0000000     0.0000000     0.0000000     0.0000000     0.0000000     0.0000000
     0.0000000     0.0000000     0.0000000     0.0000000     0.0000000     0.0000000     0.0000000
     0.0000000     0.0000000     0.0000000     0.0000000     0.0000000     0.0000000     0.0000000
     0.0000000     0.0000000     0.0000000     0.0000000     0.0000000     0.0000000     0.0000000

 Ion:    4  E_soc:     -1.7145804
 l=   1
     0.0000000    -0.2206741    -0.2209868
    -0.2206741     0.0000000    -0.2206741
    -0.2209868    -0.2206741     0.0000000
 l=   2
     0.0000000    -0.0129680     0.0000000    -0.0129680    -0.0520278
    -0.0129680     0.0000000    -0.0390640    -0.0129277    -0.0129681
     0.0000000    -0.0390640     0.0000000    -0.0390638     0.0000000
    -0.0129680    -0.0129277    -0.0390638     0.0000000    -0.0129679
    -0.0520278    -0.0129681     0.0000000    -0.0129679     0.0000000
 l=   3
     0.0000000     0.0000000     0.0000000     0.0000000     0.0000000     0.0000000     0.0000000
     0.0000000     0.0000000     0.0000000     0.0000000     0.0000000     0.0000000     0.0000000
     0.0000000     0.0000000     0.0000000     0.0000000     0.0000000     0.0000000     0.0000000
     0.0000000     0.0000000     0.0000000     0.0000000     0.0000000     0.0000000     0.0000000
     0.0000000     0.0000000     0.0000000     0.0000000     0.0000000     0.0000000     0.0000000
     0.0000000     0.0000000     0.0000000     0.0000000     0.0000000     0.0000000     0.0000000
     0.0000000     0.0000000     0.0000000     0.0000000     0.0000000     0.0000000     0.0000000

 Ion:    5  E_soc:     -1.7145804
 l=   1
     0.0000000    -0.2206741    -0.2209868
    -0.2206741     0.0000000    -0.2206741
    -0.2209868    -0.2206741     0.0000000
 l=   2
     0.0000000    -0.0129680     0.0000000    -0.0129680    -0.0520278
    -0.0129680     0.0000000    -0.0390640    -0.0129277    -0.0129681
     0.0000000    -0.0390640     0.0000000    -0.0390638     0.0000000
    -0.0129680    -0.0129277    -0.0390638     0.0000000    -0.0129679
    -0.0520278    -0.0129681     0.0000000    -0.0129679     0.0000000
 l=   3
     0.0000000     0.0000000     0.0000000     0.0000000     0.0000000     0.0000000     0.0000000
     0.0000000     0.0000000     0.0000000     0.0000000     0.0000000     0.0000000     0.0000000
     0.0000000     0.0000000     0.0000000     0.0000000     0.0000000     0.0000000     0.0000000
     0.0000000     0.0000000     0.0000000     0.0000000     0.0000000     0.0000000     0.0000000
     0.0000000     0.0000000     0.0000000     0.0000000     0.0000000     0.0000000     0.0000000
     0.0000000     0.0000000     0.0000000     0.0000000     0.0000000     0.0000000     0.0000000
     0.0000000     0.0000000     0.0000000     0.0000000     0.0000000     0.0000000     0.0000000

 Ion:    6  E_soc:     -1.7145734
 l=   1
     0.0000000    -0.2206748    -0.2209827
    -0.2206748     0.0000000    -0.2206747
    -0.2209827    -0.2206747     0.0000000
 l=   2
     0.0000000    -0.0129679     0.0000000    -0.0129680    -0.0520274
    -0.0129679     0.0000000    -0.0390639    -0.0129278    -0.0129680
     0.0000000    -0.0390639     0.0000000    -0.0390637     0.0000000
    -0.0129680    -0.0129278    -0.0390637     0.0000000    -0.0129679
    -0.0520274    -0.0129680     0.0000000    -0.0129679     0.0000000
 l=   3
     0.0000000     0.0000000     0.0000000     0.0000000     0.0000000     0.0000000     0.0000000
     0.0000000     0.0000000     0.0000000     0.0000000     0.0000000     0.0000000     0.0000000
     0.0000000     0.0000000     0.0000000     0.0000000     0.0000000     0.0000000     0.0000000
     0.0000000     0.0000000     0.0000000     0.0000000     0.0000000     0.0000000     0.0000000
     0.0000000     0.0000000     0.0000000     0.0000000     0.0000000     0.0000000     0.0000000
     0.0000000     0.0000000     0.0000000     0.0000000     0.0000000     0.0000000     0.0000000
     0.0000000     0.0000000     0.0000000     0.0000000     0.0000000     0.0000000     0.0000000

 total amount of memory used by VASP MPI-rank0   221151. kBytes
=======================================================================

   base      :      30000. kBytes
   nonl-proj :     109905. kBytes
   fftplans  :        464. kBytes
   grid      :       3732. kBytes
   one-center:        373. kBytes
   wavefun   :      76677. kBytes
 
  
  
 General timing and accounting informations for this job:
 ========================================================
  
                  Total CPU time used (sec):      231.000
                            User time (sec):      227.963
                          System time (sec):        3.036
                         Elapsed time (sec):      231.757
  
                   Maximum memory used (kb):      777884.
                   Average memory used (kb):          N/A
  
                          Minor page faults:        33932
                          Major page faults:            0
                 Voluntary context switches:         5964
