Bi                                      
           1
     4.588660    0.000000    0.000000
    -2.294330    3.973896    0.000000
     0.000000    0.000000   12.182230
   Bi
     6
Direct configuration=     1
   0.00000000  0.00000000  0.23374000
   0.00000000  0.00000000  0.76626000
   0.66666667  0.33333333  0.56707000
   0.66666667  0.33333333  0.09959000
   0.33333333  0.66666667  0.90041000
   0.33333333  0.66666667  0.43293000
