 DBCSR| CPU Multiplication driver                                           BLAS (U)
 DBCSR| Multrec recursion limit                                              512 (U)
 DBCSR| Multiplication stack size                                           1000 (D)
 DBCSR| Maximum elements for images                                    UNLIMITED (U)
 DBCSR| Multiplicative factor virtual images                                   1 (U)
 DBCSR| Use multiplication densification                                       T (D)
 DBCSR| Multiplication size stacks                                             3 (U)
 DBCSR| Use memory pool for CPU allocation                                     F (U)
 DBCSR| Number of 3D layers                                               SINGLE (U)
 DBCSR| Use MPI memory allocation                                              F (U)
 DBCSR| Use RMA algorithm                                                      F (U)
 DBCSR| Use Communication thread                                               T (U)
 DBCSR| Communication thread load                                             45 (D)
 DBCSR| MPI: My process id                                                     0
 DBCSR| MPI: Number of processes                                               8
 DBCSR| OMP: Current number of threads                                        12
 DBCSR| OMP: Max number of threads                                            12
 DBCSR| Split modifier for TAS multiplication algorithm                  1.0E+00 (U)


  **** **** ******  **  PROGRAM STARTED AT               2025-08-09 19:20:35.418
 ***** ** ***  *** **   PROGRAM STARTED ON                          i01r07c05s04
 **    ****   ******    PROGRAM STARTED BY                               di38fab
 ***** **    ** ** **   PROGRAM PROCESS ID                                560189
  **** **  *******  **  PROGRAM STARTED IN /hppfs/scratch/04/di38fab/09_GTH/Delt
                                           a_Set/Sn/DZVP-MOLOPT-PBE-GTH/8x8x8

 CP2K| version string:                 CP2K version 2025.1 (Development Version)
 CP2K| source code revision number:                                  git:3130539
 CP2K| cp2kflags: omp libint fftw3 libxc parallel scalapack max_contr=4         
 CP2K| is freely available from                            https://www.cp2k.org/
 CP2K| Program compiled at                         Tue Jun  3 16:14:32 CEST 2025
 CP2K| Program compiled on                                               login01
 CP2K| Program compiled for                                        Supermuc-foss
 CP2K| Data directory path                  /hppfs/work/pn36zo/di38fab/cp2k/data
 CP2K| Input file name                                                    GW.inp

 GLOBAL| Force Environment number                                              1
 GLOBAL| Basis set file name            /hppfs/scratch/04/di38fab/09_GTH/BASIS_A
 GLOBAL| Potential file name            /hppfs/work/pn36zo/di38fab/cp2k/data/POT
 GLOBAL| MM Potential file name                                     MM_POTENTIAL
 GLOBAL| Coordinate file name                                             Sn.cif
 GLOBAL| Method name                                                        CP2K
 GLOBAL| Project name                                                       WSe2
 GLOBAL| Run type                                                         ENERGY
 GLOBAL| FFT library                                                       FFTW3
 GLOBAL| Diagonalization library                                       ScaLAPACK
 GLOBAL| Cholesky decomposition library                                ScaLAPACK
 GLOBAL| DGEMM library                                                      BLAS
 GLOBAL| Orthonormality check for eigenvectors                          DISABLED
 GLOBAL| Matrix multiplication library                                 ScaLAPACK
 GLOBAL| All-to-all communication in single precision                          F
 GLOBAL| FFTs using library dependent lengths                                  F
 GLOBAL| Grid backend                                                       AUTO
 GLOBAL| Global print level                                               MEDIUM
 GLOBAL| MPI I/O enabled                                                       T
 GLOBAL| Total number of message passing processes                             8
 GLOBAL| Number of threads for this process                                   12
 GLOBAL| This output is from process                                           0
 GLOBAL| OpenMP stack size per thread (OMP_STACKSIZE)                    default
 GLOBAL| CPU model name             Intel(R) Xeon(R) Platinum 8174 CPU @ 3.10GHz

 MEMORY| system memory details [Kb]
 MEMORY|                        rank 0           min           max       average
 MEMORY| MemTotal             98436664      98436664      98436692      98436678
 MEMORY| MemFree              84685268      84685268      84745836      84715552
 MEMORY| Buffers                     0             0             0             0
 MEMORY| Cached                2389240       2389240       2396924       2393082
 MEMORY| Slab                  1303096       1301272       1303096       1302184
 MEMORY| SReclaimable           290728        284788        290728        287758
 MEMORY| MemLikelyFree        87365236      87365236      87427548      87396392


 *** Fundamental physical constants (SI units) ***

 *** Literature: B. J. Mohr and B. N. Taylor,
 ***             CODATA recommended values of the fundamental physical
 ***             constants: 2006, Web Version 5.1
 ***             http://physics.nist.gov/constants

 Speed of light in vacuum [m/s]                             2.99792458000000E+08
 Magnetic constant or permeability of vacuum [N/A**2]       1.25663706143592E-06
 Electric constant or permittivity of vacuum [F/m]          8.85418781762039E-12
 Planck constant (h) [J*s]                                  6.62606896000000E-34
 Planck constant (h-bar) [J*s]                              1.05457162825177E-34
 Elementary charge [C]                                      1.60217648700000E-19
 Electron mass [kg]                                         9.10938215000000E-31
 Electron g factor [ ]                                     -2.00231930436220E+00
 Proton mass [kg]                                           1.67262163700000E-27
 Fine-structure constant                                    7.29735253760000E-03
 Rydberg constant [1/m]                                     1.09737315685270E+07
 Avogadro constant [1/mol]                                  6.02214179000000E+23
 Boltzmann constant [J/K]                                   1.38065040000000E-23
 Atomic mass unit [kg]                                      1.66053878200000E-27
 Bohr radius [m]                                            5.29177208590000E-11

 *** Conversion factors ***

 [u] -> [a.u.]                                              1.82288848426455E+03
 [Angstrom] -> [Bohr] = [a.u.]                              1.88972613288564E+00
 [a.u.] = [Bohr] -> [Angstrom]                              5.29177208590000E-01
 [a.u.] -> [s]                                              2.41888432650478E-17
 [a.u.] -> [fs]                                             2.41888432650478E-02
 [a.u.] -> [J]                                              4.35974393937059E-18
 [a.u.] -> [N]                                              8.23872205491840E-08
 [a.u.] -> [K]                                              3.15774647902944E+05
 [a.u.] -> [kJ/mol]                                         2.62549961709828E+03
 [a.u.] -> [kcal/mol]                                       6.27509468713739E+02
 [a.u.] -> [Pa]                                             2.94210107994716E+13
 [a.u.] -> [bar]                                            2.94210107994716E+08
 [a.u.] -> [atm]                                            2.90362800883016E+08
 [a.u.] -> [eV]                                             2.72113838565563E+01
 [a.u.] -> [Hz]                                             6.57968392072181E+15
 [a.u.] -> [1/cm] (wave numbers)                            2.19474631370540E+05
 [a.u./Bohr**2] -> [1/cm]                                   5.14048714338585E+03
 

 CELL_TOP| Volume [angstrom^3]:                                        73.717549
 CELL_TOP| Vector a [angstrom     4.706     0.000     0.000   |a| =     4.706470
 CELL_TOP| Vector b [angstrom     2.353     4.076     0.000   |b| =     4.706470
 CELL_TOP| Vector c [angstrom     2.353     1.359     3.843   |c| =     4.706470
 CELL_TOP| Angle (b,c), alpha [degree]:                                60.000000
 CELL_TOP| Angle (a,c), beta  [degree]:                                60.000000
 CELL_TOP| Angle (a,b), gamma [degree]:                                60.000000
 CELL_TOP| Numerically orthorhombic:                                          NO
 CELL_TOP| Periodicity                                                       XYZ

 CELL_CIF| Volume [angstrom^3]:                                        73.717549
 CELL_CIF| Vector a [angstrom     4.706     0.000     0.000   |a| =     4.706470
 CELL_CIF| Vector b [angstrom     2.353     4.076     0.000   |b| =     4.706470
 CELL_CIF| Vector c [angstrom     2.353     1.359     3.843   |c| =     4.706470
 CELL_CIF| Angle (b,c), alpha [degree]:                                60.000000
 CELL_CIF| Angle (a,c), beta  [degree]:                                60.000000
 CELL_CIF| Angle (a,b), gamma [degree]:                                60.000000
 CELL_CIF| Numerically orthorhombic:                                          NO
 CELL_CIF| Periodicity                                                       XYZ

 GENERATE|  Preliminary Number of Bonds generated:                             0
 GENERATE|  Achieved consistency in connectivity generation.

 CELL| Volume [angstrom^3]:                                            73.717549
 CELL| Vector a [angstrom]:       4.706     0.000     0.000   |a| =     4.706470
 CELL| Vector b [angstrom]:       2.353     4.076     0.000   |b| =     4.706470
 CELL| Vector c [angstrom]:       2.353     1.359     3.843   |c| =     4.706470
 CELL| Angle (b,c), alpha [degree]:                                    60.000000
 CELL| Angle (a,c), beta  [degree]:                                    60.000000
 CELL| Angle (a,b), gamma [degree]:                                    60.000000
 CELL| Numerically orthorhombic:                                              NO
 CELL| Periodicity                                                           XYZ

 CELL_REF| Volume [angstrom^3]:                                        73.717549
 CELL_REF| Vector a [angstrom     4.706     0.000     0.000   |a| =     4.706470
 CELL_REF| Vector b [angstrom     2.353     4.076     0.000   |b| =     4.706470
 CELL_REF| Vector c [angstrom     2.353     1.359     3.843   |c| =     4.706470
 CELL_REF| Angle (b,c), alpha [degree]:                                60.000000
 CELL_REF| Angle (a,c), beta  [degree]:                                60.000000
 CELL_REF| Angle (a,b), gamma [degree]:                                60.000000
 CELL_REF| Numerically orthorhombic:                                          NO
 CELL_REF| Periodicity                                                       XYZ

 *** WARNING in cryssym.F:180 :: Symmetry library SPGLIB not available ***


 *******************************************************************************
                                    Kpoints
 *******************************************************************************
 BRILLOUIN| K-point scheme                                        Monkhorst-Pack
 BRILLOUIN| K-Point grid                                             8    8    8
 BRILLOUIN| Accuracy in Symmetry determination                      0.100000E-05
 BRILLOUIN| K-Point point group symmetrization                               OFF
 BRILLOUIN| Wavefunction type                                            COMPLEX
 BRILLOUIN| List of Kpoints [2 Pi/Bohr]                                      256
 BRILLOUIN| Number           Weight            X              Y              Z
 BRILLOUIN|     1           0.00391       -0.43750       -0.43750       -0.43750
 BRILLOUIN|     2           0.00391       -0.43750       -0.43750       -0.31250
 BRILLOUIN|     3           0.00391       -0.43750       -0.43750       -0.18750
 BRILLOUIN|     4           0.00391       -0.43750       -0.43750       -0.06250
 BRILLOUIN|     5           0.00391       -0.43750       -0.43750        0.06250
 BRILLOUIN|     6           0.00391       -0.43750       -0.43750        0.18750
 BRILLOUIN|     7           0.00391       -0.43750       -0.43750        0.31250
 BRILLOUIN|     8           0.00391       -0.43750       -0.43750        0.43750
 BRILLOUIN|     9           0.00391       -0.43750       -0.31250       -0.43750
 BRILLOUIN|    10           0.00391       -0.43750       -0.31250       -0.31250
 BRILLOUIN|    11           0.00391       -0.43750       -0.31250       -0.18750
 BRILLOUIN|    12           0.00391       -0.43750       -0.31250       -0.06250
 BRILLOUIN|    13           0.00391       -0.43750       -0.31250        0.06250
 BRILLOUIN|    14           0.00391       -0.43750       -0.31250        0.18750
 BRILLOUIN|    15           0.00391       -0.43750       -0.31250        0.31250
 BRILLOUIN|    16           0.00391       -0.43750       -0.31250        0.43750
 BRILLOUIN|    17           0.00391       -0.43750       -0.18750       -0.43750
 BRILLOUIN|    18           0.00391       -0.43750       -0.18750       -0.31250
 BRILLOUIN|    19           0.00391       -0.43750       -0.18750       -0.18750
 BRILLOUIN|    20           0.00391       -0.43750       -0.18750       -0.06250
 BRILLOUIN|    21           0.00391       -0.43750       -0.18750        0.06250
 BRILLOUIN|    22           0.00391       -0.43750       -0.18750        0.18750
 BRILLOUIN|    23           0.00391       -0.43750       -0.18750        0.31250
 BRILLOUIN|    24           0.00391       -0.43750       -0.18750        0.43750
 BRILLOUIN|    25           0.00391       -0.43750       -0.06250       -0.43750
 BRILLOUIN|    26           0.00391       -0.43750       -0.06250       -0.31250
 BRILLOUIN|    27           0.00391       -0.43750       -0.06250       -0.18750
 BRILLOUIN|    28           0.00391       -0.43750       -0.06250       -0.06250
 BRILLOUIN|    29           0.00391       -0.43750       -0.06250        0.06250
 BRILLOUIN|    30           0.00391       -0.43750       -0.06250        0.18750
 BRILLOUIN|    31           0.00391       -0.43750       -0.06250        0.31250
 BRILLOUIN|    32           0.00391       -0.43750       -0.06250        0.43750
 BRILLOUIN|    33           0.00391       -0.43750        0.06250       -0.43750
 BRILLOUIN|    34           0.00391       -0.43750        0.06250       -0.31250
 BRILLOUIN|    35           0.00391       -0.43750        0.06250       -0.18750
 BRILLOUIN|    36           0.00391       -0.43750        0.06250       -0.06250
 BRILLOUIN|    37           0.00391       -0.43750        0.06250        0.06250
 BRILLOUIN|    38           0.00391       -0.43750        0.06250        0.18750
 BRILLOUIN|    39           0.00391       -0.43750        0.06250        0.31250
 BRILLOUIN|    40           0.00391       -0.43750        0.06250        0.43750
 BRILLOUIN|    41           0.00391       -0.43750        0.18750       -0.43750
 BRILLOUIN|    42           0.00391       -0.43750        0.18750       -0.31250
 BRILLOUIN|    43           0.00391       -0.43750        0.18750       -0.18750
 BRILLOUIN|    44           0.00391       -0.43750        0.18750       -0.06250
 BRILLOUIN|    45           0.00391       -0.43750        0.18750        0.06250
 BRILLOUIN|    46           0.00391       -0.43750        0.18750        0.18750
 BRILLOUIN|    47           0.00391       -0.43750        0.18750        0.31250
 BRILLOUIN|    48           0.00391       -0.43750        0.18750        0.43750
 BRILLOUIN|    49           0.00391       -0.43750        0.31250       -0.43750
 BRILLOUIN|    50           0.00391       -0.43750        0.31250       -0.31250
 BRILLOUIN|    51           0.00391       -0.43750        0.31250       -0.18750
 BRILLOUIN|    52           0.00391       -0.43750        0.31250       -0.06250
 BRILLOUIN|    53           0.00391       -0.43750        0.31250        0.06250
 BRILLOUIN|    54           0.00391       -0.43750        0.31250        0.18750
 BRILLOUIN|    55           0.00391       -0.43750        0.31250        0.31250
 BRILLOUIN|    56           0.00391       -0.43750        0.31250        0.43750
 BRILLOUIN|    57           0.00391       -0.43750        0.43750       -0.43750
 BRILLOUIN|    58           0.00391       -0.43750        0.43750       -0.31250
 BRILLOUIN|    59           0.00391       -0.43750        0.43750       -0.18750
 BRILLOUIN|    60           0.00391       -0.43750        0.43750       -0.06250
 BRILLOUIN|    61           0.00391       -0.43750        0.43750        0.06250
 BRILLOUIN|    62           0.00391       -0.43750        0.43750        0.18750
 BRILLOUIN|    63           0.00391       -0.43750        0.43750        0.31250
 BRILLOUIN|    64           0.00391       -0.43750        0.43750        0.43750
 BRILLOUIN|    65           0.00391       -0.31250       -0.43750       -0.43750
 BRILLOUIN|    66           0.00391       -0.31250       -0.43750       -0.31250
 BRILLOUIN|    67           0.00391       -0.31250       -0.43750       -0.18750
 BRILLOUIN|    68           0.00391       -0.31250       -0.43750       -0.06250
 BRILLOUIN|    69           0.00391       -0.31250       -0.43750        0.06250
 BRILLOUIN|    70           0.00391       -0.31250       -0.43750        0.18750
 BRILLOUIN|    71           0.00391       -0.31250       -0.43750        0.31250
 BRILLOUIN|    72           0.00391       -0.31250       -0.43750        0.43750
 BRILLOUIN|    73           0.00391       -0.31250       -0.31250       -0.43750
 BRILLOUIN|    74           0.00391       -0.31250       -0.31250       -0.31250
 BRILLOUIN|    75           0.00391       -0.31250       -0.31250       -0.18750
 BRILLOUIN|    76           0.00391       -0.31250       -0.31250       -0.06250
 BRILLOUIN|    77           0.00391       -0.31250       -0.31250        0.06250
 BRILLOUIN|    78           0.00391       -0.31250       -0.31250        0.18750
 BRILLOUIN|    79           0.00391       -0.31250       -0.31250        0.31250
 BRILLOUIN|    80           0.00391       -0.31250       -0.31250        0.43750
 BRILLOUIN|    81           0.00391       -0.31250       -0.18750       -0.43750
 BRILLOUIN|    82           0.00391       -0.31250       -0.18750       -0.31250
 BRILLOUIN|    83           0.00391       -0.31250       -0.18750       -0.18750
 BRILLOUIN|    84           0.00391       -0.31250       -0.18750       -0.06250
 BRILLOUIN|    85           0.00391       -0.31250       -0.18750        0.06250
 BRILLOUIN|    86           0.00391       -0.31250       -0.18750        0.18750
 BRILLOUIN|    87           0.00391       -0.31250       -0.18750        0.31250
 BRILLOUIN|    88           0.00391       -0.31250       -0.18750        0.43750
 BRILLOUIN|    89           0.00391       -0.31250       -0.06250       -0.43750
 BRILLOUIN|    90           0.00391       -0.31250       -0.06250       -0.31250
 BRILLOUIN|    91           0.00391       -0.31250       -0.06250       -0.18750
 BRILLOUIN|    92           0.00391       -0.31250       -0.06250       -0.06250
 BRILLOUIN|    93           0.00391       -0.31250       -0.06250        0.06250
 BRILLOUIN|    94           0.00391       -0.31250       -0.06250        0.18750
 BRILLOUIN|    95           0.00391       -0.31250       -0.06250        0.31250
 BRILLOUIN|    96           0.00391       -0.31250       -0.06250        0.43750
 BRILLOUIN|    97           0.00391       -0.31250        0.06250       -0.43750
 BRILLOUIN|    98           0.00391       -0.31250        0.06250       -0.31250
 BRILLOUIN|    99           0.00391       -0.31250        0.06250       -0.18750
 BRILLOUIN|   100           0.00391       -0.31250        0.06250       -0.06250
 BRILLOUIN|   101           0.00391       -0.31250        0.06250        0.06250
 BRILLOUIN|   102           0.00391       -0.31250        0.06250        0.18750
 BRILLOUIN|   103           0.00391       -0.31250        0.06250        0.31250
 BRILLOUIN|   104           0.00391       -0.31250        0.06250        0.43750
 BRILLOUIN|   105           0.00391       -0.31250        0.18750       -0.43750
 BRILLOUIN|   106           0.00391       -0.31250        0.18750       -0.31250
 BRILLOUIN|   107           0.00391       -0.31250        0.18750       -0.18750
 BRILLOUIN|   108           0.00391       -0.31250        0.18750       -0.06250
 BRILLOUIN|   109           0.00391       -0.31250        0.18750        0.06250
 BRILLOUIN|   110           0.00391       -0.31250        0.18750        0.18750
 BRILLOUIN|   111           0.00391       -0.31250        0.18750        0.31250
 BRILLOUIN|   112           0.00391       -0.31250        0.18750        0.43750
 BRILLOUIN|   113           0.00391       -0.31250        0.31250       -0.43750
 BRILLOUIN|   114           0.00391       -0.31250        0.31250       -0.31250
 BRILLOUIN|   115           0.00391       -0.31250        0.31250       -0.18750
 BRILLOUIN|   116           0.00391       -0.31250        0.31250       -0.06250
 BRILLOUIN|   117           0.00391       -0.31250        0.31250        0.06250
 BRILLOUIN|   118           0.00391       -0.31250        0.31250        0.18750
 BRILLOUIN|   119           0.00391       -0.31250        0.31250        0.31250
 BRILLOUIN|   120           0.00391       -0.31250        0.31250        0.43750
 BRILLOUIN|   121           0.00391       -0.31250        0.43750       -0.43750
 BRILLOUIN|   122           0.00391       -0.31250        0.43750       -0.31250
 BRILLOUIN|   123           0.00391       -0.31250        0.43750       -0.18750
 BRILLOUIN|   124           0.00391       -0.31250        0.43750       -0.06250
 BRILLOUIN|   125           0.00391       -0.31250        0.43750        0.06250
 BRILLOUIN|   126           0.00391       -0.31250        0.43750        0.18750
 BRILLOUIN|   127           0.00391       -0.31250        0.43750        0.31250
 BRILLOUIN|   128           0.00391       -0.31250        0.43750        0.43750
 BRILLOUIN|   129           0.00391       -0.18750       -0.43750       -0.43750
 BRILLOUIN|   130           0.00391       -0.18750       -0.43750       -0.31250
 BRILLOUIN|   131           0.00391       -0.18750       -0.43750       -0.18750
 BRILLOUIN|   132           0.00391       -0.18750       -0.43750       -0.06250
 BRILLOUIN|   133           0.00391       -0.18750       -0.43750        0.06250
 BRILLOUIN|   134           0.00391       -0.18750       -0.43750        0.18750
 BRILLOUIN|   135           0.00391       -0.18750       -0.43750        0.31250
 BRILLOUIN|   136           0.00391       -0.18750       -0.43750        0.43750
 BRILLOUIN|   137           0.00391       -0.18750       -0.31250       -0.43750
 BRILLOUIN|   138           0.00391       -0.18750       -0.31250       -0.31250
 BRILLOUIN|   139           0.00391       -0.18750       -0.31250       -0.18750
 BRILLOUIN|   140           0.00391       -0.18750       -0.31250       -0.06250
 BRILLOUIN|   141           0.00391       -0.18750       -0.31250        0.06250
 BRILLOUIN|   142           0.00391       -0.18750       -0.31250        0.18750
 BRILLOUIN|   143           0.00391       -0.18750       -0.31250        0.31250
 BRILLOUIN|   144           0.00391       -0.18750       -0.31250        0.43750
 BRILLOUIN|   145           0.00391       -0.18750       -0.18750       -0.43750
 BRILLOUIN|   146           0.00391       -0.18750       -0.18750       -0.31250
 BRILLOUIN|   147           0.00391       -0.18750       -0.18750       -0.18750
 BRILLOUIN|   148           0.00391       -0.18750       -0.18750       -0.06250
 BRILLOUIN|   149           0.00391       -0.18750       -0.18750        0.06250
 BRILLOUIN|   150           0.00391       -0.18750       -0.18750        0.18750
 BRILLOUIN|   151           0.00391       -0.18750       -0.18750        0.31250
 BRILLOUIN|   152           0.00391       -0.18750       -0.18750        0.43750
 BRILLOUIN|   153           0.00391       -0.18750       -0.06250       -0.43750
 BRILLOUIN|   154           0.00391       -0.18750       -0.06250       -0.31250
 BRILLOUIN|   155           0.00391       -0.18750       -0.06250       -0.18750
 BRILLOUIN|   156           0.00391       -0.18750       -0.06250       -0.06250
 BRILLOUIN|   157           0.00391       -0.18750       -0.06250        0.06250
 BRILLOUIN|   158           0.00391       -0.18750       -0.06250        0.18750
 BRILLOUIN|   159           0.00391       -0.18750       -0.06250        0.31250
 BRILLOUIN|   160           0.00391       -0.18750       -0.06250        0.43750
 BRILLOUIN|   161           0.00391       -0.18750        0.06250       -0.43750
 BRILLOUIN|   162           0.00391       -0.18750        0.06250       -0.31250
 BRILLOUIN|   163           0.00391       -0.18750        0.06250       -0.18750
 BRILLOUIN|   164           0.00391       -0.18750        0.06250       -0.06250
 BRILLOUIN|   165           0.00391       -0.18750        0.06250        0.06250
 BRILLOUIN|   166           0.00391       -0.18750        0.06250        0.18750
 BRILLOUIN|   167           0.00391       -0.18750        0.06250        0.31250
 BRILLOUIN|   168           0.00391       -0.18750        0.06250        0.43750
 BRILLOUIN|   169           0.00391       -0.18750        0.18750       -0.43750
 BRILLOUIN|   170           0.00391       -0.18750        0.18750       -0.31250
 BRILLOUIN|   171           0.00391       -0.18750        0.18750       -0.18750
 BRILLOUIN|   172           0.00391       -0.18750        0.18750       -0.06250
 BRILLOUIN|   173           0.00391       -0.18750        0.18750        0.06250
 BRILLOUIN|   174           0.00391       -0.18750        0.18750        0.18750
 BRILLOUIN|   175           0.00391       -0.18750        0.18750        0.31250
 BRILLOUIN|   176           0.00391       -0.18750        0.18750        0.43750
 BRILLOUIN|   177           0.00391       -0.18750        0.31250       -0.43750
 BRILLOUIN|   178           0.00391       -0.18750        0.31250       -0.31250
 BRILLOUIN|   179           0.00391       -0.18750        0.31250       -0.18750
 BRILLOUIN|   180           0.00391       -0.18750        0.31250       -0.06250
 BRILLOUIN|   181           0.00391       -0.18750        0.31250        0.06250
 BRILLOUIN|   182           0.00391       -0.18750        0.31250        0.18750
 BRILLOUIN|   183           0.00391       -0.18750        0.31250        0.31250
 BRILLOUIN|   184           0.00391       -0.18750        0.31250        0.43750
 BRILLOUIN|   185           0.00391       -0.18750        0.43750       -0.43750
 BRILLOUIN|   186           0.00391       -0.18750        0.43750       -0.31250
 BRILLOUIN|   187           0.00391       -0.18750        0.43750       -0.18750
 BRILLOUIN|   188           0.00391       -0.18750        0.43750       -0.06250
 BRILLOUIN|   189           0.00391       -0.18750        0.43750        0.06250
 BRILLOUIN|   190           0.00391       -0.18750        0.43750        0.18750
 BRILLOUIN|   191           0.00391       -0.18750        0.43750        0.31250
 BRILLOUIN|   192           0.00391       -0.18750        0.43750        0.43750
 BRILLOUIN|   193           0.00391       -0.06250       -0.43750       -0.43750
 BRILLOUIN|   194           0.00391       -0.06250       -0.43750       -0.31250
 BRILLOUIN|   195           0.00391       -0.06250       -0.43750       -0.18750
 BRILLOUIN|   196           0.00391       -0.06250       -0.43750       -0.06250
 BRILLOUIN|   197           0.00391       -0.06250       -0.43750        0.06250
 BRILLOUIN|   198           0.00391       -0.06250       -0.43750        0.18750
 BRILLOUIN|   199           0.00391       -0.06250       -0.43750        0.31250
 BRILLOUIN|   200           0.00391       -0.06250       -0.43750        0.43750
 BRILLOUIN|   201           0.00391       -0.06250       -0.31250       -0.43750
 BRILLOUIN|   202           0.00391       -0.06250       -0.31250       -0.31250
 BRILLOUIN|   203           0.00391       -0.06250       -0.31250       -0.18750
 BRILLOUIN|   204           0.00391       -0.06250       -0.31250       -0.06250
 BRILLOUIN|   205           0.00391       -0.06250       -0.31250        0.06250
 BRILLOUIN|   206           0.00391       -0.06250       -0.31250        0.18750
 BRILLOUIN|   207           0.00391       -0.06250       -0.31250        0.31250
 BRILLOUIN|   208           0.00391       -0.06250       -0.31250        0.43750
 BRILLOUIN|   209           0.00391       -0.06250       -0.18750       -0.43750
 BRILLOUIN|   210           0.00391       -0.06250       -0.18750       -0.31250
 BRILLOUIN|   211           0.00391       -0.06250       -0.18750       -0.18750
 BRILLOUIN|   212           0.00391       -0.06250       -0.18750       -0.06250
 BRILLOUIN|   213           0.00391       -0.06250       -0.18750        0.06250
 BRILLOUIN|   214           0.00391       -0.06250       -0.18750        0.18750
 BRILLOUIN|   215           0.00391       -0.06250       -0.18750        0.31250
 BRILLOUIN|   216           0.00391       -0.06250       -0.18750        0.43750
 BRILLOUIN|   217           0.00391       -0.06250       -0.06250       -0.43750
 BRILLOUIN|   218           0.00391       -0.06250       -0.06250       -0.31250
 BRILLOUIN|   219           0.00391       -0.06250       -0.06250       -0.18750
 BRILLOUIN|   220           0.00391       -0.06250       -0.06250       -0.06250
 BRILLOUIN|   221           0.00391       -0.06250       -0.06250        0.06250
 BRILLOUIN|   222           0.00391       -0.06250       -0.06250        0.18750
 BRILLOUIN|   223           0.00391       -0.06250       -0.06250        0.31250
 BRILLOUIN|   224           0.00391       -0.06250       -0.06250        0.43750
 BRILLOUIN|   225           0.00391       -0.06250        0.06250       -0.43750
 BRILLOUIN|   226           0.00391       -0.06250        0.06250       -0.31250
 BRILLOUIN|   227           0.00391       -0.06250        0.06250       -0.18750
 BRILLOUIN|   228           0.00391       -0.06250        0.06250       -0.06250
 BRILLOUIN|   229           0.00391       -0.06250        0.06250        0.06250
 BRILLOUIN|   230           0.00391       -0.06250        0.06250        0.18750
 BRILLOUIN|   231           0.00391       -0.06250        0.06250        0.31250
 BRILLOUIN|   232           0.00391       -0.06250        0.06250        0.43750
 BRILLOUIN|   233           0.00391       -0.06250        0.18750       -0.43750
 BRILLOUIN|   234           0.00391       -0.06250        0.18750       -0.31250
 BRILLOUIN|   235           0.00391       -0.06250        0.18750       -0.18750
 BRILLOUIN|   236           0.00391       -0.06250        0.18750       -0.06250
 BRILLOUIN|   237           0.00391       -0.06250        0.18750        0.06250
 BRILLOUIN|   238           0.00391       -0.06250        0.18750        0.18750
 BRILLOUIN|   239           0.00391       -0.06250        0.18750        0.31250
 BRILLOUIN|   240           0.00391       -0.06250        0.18750        0.43750
 BRILLOUIN|   241           0.00391       -0.06250        0.31250       -0.43750
 BRILLOUIN|   242           0.00391       -0.06250        0.31250       -0.31250
 BRILLOUIN|   243           0.00391       -0.06250        0.31250       -0.18750
 BRILLOUIN|   244           0.00391       -0.06250        0.31250       -0.06250
 BRILLOUIN|   245           0.00391       -0.06250        0.31250        0.06250
 BRILLOUIN|   246           0.00391       -0.06250        0.31250        0.18750
 BRILLOUIN|   247           0.00391       -0.06250        0.31250        0.31250
 BRILLOUIN|   248           0.00391       -0.06250        0.31250        0.43750
 BRILLOUIN|   249           0.00391       -0.06250        0.43750       -0.43750
 BRILLOUIN|   250           0.00391       -0.06250        0.43750       -0.31250
 BRILLOUIN|   251           0.00391       -0.06250        0.43750       -0.18750
 BRILLOUIN|   252           0.00391       -0.06250        0.43750       -0.06250
 BRILLOUIN|   253           0.00391       -0.06250        0.43750        0.06250
 BRILLOUIN|   254           0.00391       -0.06250        0.43750        0.18750
 BRILLOUIN|   255           0.00391       -0.06250        0.43750        0.31250
 BRILLOUIN|   256           0.00391       -0.06250        0.43750        0.43750
 *******************************************************************************

 *******************************************************************************
 *******************************************************************************
 **                                                                           **
 **     #####                         ##              ##                      **
 **    ##   ##            ##          ##              ##                      **
 **   ##     ##                       ##            ######                    **
 **   ##     ##  ##   ##  ##   #####  ##  ##   ####   ##    #####    #####    **
 **   ##     ##  ##   ##  ##  ##      ## ##   ##      ##   ##   ##  ##   ##   **
 **   ##  ## ##  ##   ##  ##  ##      ####     ###    ##   ######   ######    **
 **    ##  ###   ##   ##  ##  ##      ## ##      ##   ##   ##       ##        **
 **     #######   #####   ##   #####  ##  ##  ####    ##    #####   ##        **
 **           ##                                                    ##        **
 **                                                                           **
 **                                                ... make the atoms dance   **
 **                                                                           **
 **            Copyright (C) by CP2K developers group (2000-2025)             **
 **                      J. Chem. Phys. 152, 194103 (2020)                    **
 **                                                                           **
 *******************************************************************************

 DFT| Spin restricted Kohn-Sham (RKS) calculation                            RKS
 DFT| Multiplicity                                                             1
 DFT| Number of spin states                                                    1
 DFT| Charge                                                                   0
 DFT| Self-interaction correction (SIC)                                       NO
 DFT| Cutoffs: density                                              1.000000E-10
 DFT|          gradient                                             1.000000E-10
 DFT|          tau                                                  1.000000E-10
 DFT|          cutoff_smoothing_range                               0.000000E+00
 DFT| XC density smoothing                                                  NONE
 DFT| XC derivatives                                                          PW

 FUNCTIONAL| PBE:
 FUNCTIONAL| J.P.Perdew, K.Burke, M.Ernzerhof, Phys. Rev. Letter, vol. 77, n 18,
 FUNCTIONAL|  pp. 3865-3868, (1996) {spin unpolarized}                          


 QS| Method:                                                                 GPW
 QS| Density plane wave grid type                        NON-SPHERICAL FULLSPACE
 QS| Number of grid levels:                                                    4
 QS| Density cutoff [a.u.]:                                                500.0
 QS| Multi grid cutoff [a.u.]: 1) grid level                               500.0
 QS|                           2) grid level                               166.7
 QS|                           3) grid level                                55.6
 QS|                           4) grid level                                18.5
 QS| Grid level progression factor:                                          3.0
 QS| Relative density cutoff [a.u.]:                                        50.0
 QS| Interaction thresholds: eps_pgf_orb:                                1.0E-16
 QS|                         eps_filter_matrix:                          0.0E+00
 QS|                         eps_core_charge:                            1.0E-18
 QS|                         eps_rho_gspace:                             1.0E-16
 QS|                         eps_rho_rspace:                             1.0E-16
 QS|                         eps_gvg_rspace:                             1.0E-08
 QS|                         eps_ppl:                                    1.0E-02
 QS|                         eps_ppnl:                                   1.0E-10


 ATOMIC KIND INFORMATION

  1. Atomic kind: Sn                                    Number of atoms:       2

     Orbital Basis Set                                   DZVP-MOLOPT-GGA-GTH-q14

       Number of orbital shell sets:                                           1
       Number of orbital shells:                                               7
       Number of primitive Cartesian functions:                                6
       Number of Cartesian basis functions:                                   30
       Number of spherical basis functions:                                   25
       Norm type:                                                              2

       Normalised Cartesian orbitals:

                        Set   Shell   Orbital            Exponent    Coefficient

                          1       1    2s                3.051906      -0.029750
                                                         1.614189       0.050028
                                                         0.766768       0.066172
                                                         0.348723      -0.007869
                                                         0.139108      -0.101055
                                                         0.051730      -0.036139

                          1       2    3s                3.051906      -0.154515
                                                         1.614189       0.014705
                                                         0.766768       0.980297
                                                         0.348723      -0.661747
                                                         0.139108      -0.094533
                                                         0.051730       0.100028

                          1       3    3px               3.051906       0.000578
                                                         1.614189       0.016822
                                                         0.766768      -0.077743
                                                         0.348723       0.049135
                                                         0.139108       0.065015
                                                         0.051730       0.016584
                          1       3    3py               3.051906       0.000578
                                                         1.614189       0.016822
                                                         0.766768      -0.077743
                                                         0.348723       0.049135
                                                         0.139108       0.065015
                                                         0.051730       0.016584
                          1       3    3pz               3.051906       0.000578
                                                         1.614189       0.016822
                                                         0.766768      -0.077743
                                                         0.348723       0.049135
                                                         0.139108       0.065015
                                                         0.051730       0.016584

                          1       4    4px               3.051906       0.164039
                                                         1.614189      -0.049663
                                                         0.766768      -0.470992
                                                         0.348723       0.461742
                                                         0.139108       0.040947
                                                         0.051730      -0.027734
                          1       4    4py               3.051906       0.164039
                                                         1.614189      -0.049663
                                                         0.766768      -0.470992
                                                         0.348723       0.461742
                                                         0.139108       0.040947
                                                         0.051730      -0.027734
                          1       4    4pz               3.051906       0.164039
                                                         1.614189      -0.049663
                                                         0.766768      -0.470992
                                                         0.348723       0.461742
                                                         0.139108       0.040947
                                                         0.051730      -0.027734

                          1       5    4dx2              3.051906       2.543368
                                                         1.614189       1.244113
                                                         0.766768       0.245074
                                                         0.348723       0.082431
                                                         0.139108       0.007892
                                                         0.051730       0.000915
                          1       5    4dxy              3.051906       4.405243
                                                         1.614189       2.154867
                                                         0.766768       0.424480
                                                         0.348723       0.142775
                                                         0.139108       0.013669
                                                         0.051730       0.001585
                          1       5    4dxz              3.051906       4.405243
                                                         1.614189       2.154867
                                                         0.766768       0.424480
                                                         0.348723       0.142775
                                                         0.139108       0.013669
                                                         0.051730       0.001585
                          1       5    4dy2              3.051906       2.543368
                                                         1.614189       1.244113
                                                         0.766768       0.245074
                                                         0.348723       0.082431
                                                         0.139108       0.007892
                                                         0.051730       0.000915
                          1       5    4dyz              3.051906       4.405243
                                                         1.614189       2.154867
                                                         0.766768       0.424480
                                                         0.348723       0.142775
                                                         0.139108       0.013669
                                                         0.051730       0.001585
                          1       5    4dz2              3.051906       2.543368
                                                         1.614189       1.244113
                                                         0.766768       0.245074
                                                         0.348723       0.082431
                                                         0.139108       0.007892
                                                         0.051730       0.000915

                          1       6    5dx2              3.051906      -2.014118
                                                         1.614189      -1.335712
                                                         0.766768      -0.364973
                                                         0.348723       0.122715
                                                         0.139108       0.020366
                                                         0.051730       0.002639
                          1       6    5dxy              3.051906      -3.488555
                                                         1.614189      -2.313521
                                                         0.766768      -0.632152
                                                         0.348723       0.212549
                                                         0.139108       0.035276
                                                         0.051730       0.004572
                          1       6    5dxz              3.051906      -3.488555
                                                         1.614189      -2.313521
                                                         0.766768      -0.632152
                                                         0.348723       0.212549
                                                         0.139108       0.035276
                                                         0.051730       0.004572
                          1       6    5dy2              3.051906      -2.014118
                                                         1.614189      -1.335712
                                                         0.766768      -0.364973
                                                         0.348723       0.122715
                                                         0.139108       0.020366
                                                         0.051730       0.002639
                          1       6    5dyz              3.051906      -3.488555
                                                         1.614189      -2.313521
                                                         0.766768      -0.632152
                                                         0.348723       0.212549
                                                         0.139108       0.035276
                                                         0.051730       0.004572
                          1       6    5dz2              3.051906      -2.014118
                                                         1.614189      -1.335712
                                                         0.766768      -0.364973
                                                         0.348723       0.122715
                                                         0.139108       0.020366
                                                         0.051730       0.002639

                          1       7    5fx3              3.051906      -1.117279
                                                         1.614189       0.663467
                                                         0.766768      -0.413352
                                                         0.348723      -0.029699
                                                         0.139108      -0.010738
                                                         0.051730       0.000122
                          1       7    5fx2y             3.051906      -2.498311
                                                         1.614189       1.483558
                                                         0.766768      -0.924284
                                                         0.348723      -0.066409
                                                         0.139108      -0.024011
                                                         0.051730       0.000273
                          1       7    5fx2z             3.051906      -2.498311
                                                         1.614189       1.483558
                                                         0.766768      -0.924284
                                                         0.348723      -0.066409
                                                         0.139108      -0.024011
                                                         0.051730       0.000273
                          1       7    5fxy2             3.051906      -2.498311
                                                         1.614189       1.483558
                                                         0.766768      -0.924284
                                                         0.348723      -0.066409
                                                         0.139108      -0.024011
                                                         0.051730       0.000273
                          1       7    5fxyz             3.051906      -4.327202
                                                         1.614189       2.569598
                                                         0.766768      -1.600907
                                                         0.348723      -0.115023
                                                         0.139108      -0.041588
                                                         0.051730       0.000473
                          1       7    5fxz2             3.051906      -2.498311
                                                         1.614189       1.483558
                                                         0.766768      -0.924284
                                                         0.348723      -0.066409
                                                         0.139108      -0.024011
                                                         0.051730       0.000273
                          1       7    5fy3              3.051906      -1.117279
                                                         1.614189       0.663467
                                                         0.766768      -0.413352
                                                         0.348723      -0.029699
                                                         0.139108      -0.010738
                                                         0.051730       0.000122
                          1       7    5fy2z             3.051906      -2.498311
                                                         1.614189       1.483558
                                                         0.766768      -0.924284
                                                         0.348723      -0.066409
                                                         0.139108      -0.024011
                                                         0.051730       0.000273
                          1       7    5fyz2             3.051906      -2.498311
                                                         1.614189       1.483558
                                                         0.766768      -0.924284
                                                         0.348723      -0.066409
                                                         0.139108      -0.024011
                                                         0.051730       0.000273
                          1       7    5fz3              3.051906      -1.117279
                                                         1.614189       0.663467
                                                         0.766768      -0.413352
                                                         0.348723      -0.029699
                                                         0.139108      -0.010738
                                                         0.051730       0.000122

       Atomic covalent radius [Angstrom]:                                  1.410

       Atomic van der Waals radius [Angstrom]:                             2.170

     GTH Potential information for                                   GTH-PBE-q14

       Description:                       Goedecker-Teter-Hutter pseudopotential
                                           Goedecker et al., PRB 54, 1703 (1996)
                                          Hartwigsen et al., PRB 58, 3641 (1998)
                                                      Krack, TCA 114, 145 (2005)

       Gaussian exponent of the core charge distribution:               1.885038
       Electronic configuration (s p d ...):                       2   2  10   0

       Parameters of the local part of the GTH pseudopotential:

                          rloc        C1          C2          C3          C4
                        0.515021    3.166706

       Parameters of the non-local part of the GTH pseudopotential:

                   l      r(l)      h(i,j,l)

                   0    0.477724   11.004212   -6.573507    1.506864
                                   -6.573507   10.720024   -3.890708
                                    1.506864   -3.890708    3.014375
                   1    0.558592    4.639790   -2.217068
                                   -2.217068    2.573566
                   2    0.373044   -3.918103   -0.840128
                                   -0.840128    0.953262


 MOLECULE KIND INFORMATION


 All atoms are their own molecule, skipping detailed information


 TOTAL NUMBERS AND MAXIMUM NUMBERS

  Total number of            - Atomic kinds:                                   1
                             - Atoms:                                          2
                             - Shell sets:                                     2
                             - Shells:                                        14
                             - Primitive Cartesian functions:                 12
                             - Cartesian basis functions:                     60
                             - Spherical basis functions:                     50

  Maximum angular momentum of- Orbital basis functions:                        3
                             - Local part of the GTH pseudopotential:          0
                             - Non-local part of the GTH pseudopotential:      4


 MODULE QUICKSTEP: ATOMIC COORDINATES IN ANGSTROM

   Atom Kind Element         X             Y             Z       Z(eff)     Mass
      1    1 Sn   50      0.000000      0.000000      0.000000  14.0000 118.7100
      2    1 Sn   50      2.353235      1.358641      0.960704  14.0000 118.7100



 SCF PARAMETERS         Density guess:                                    ATOMIC
                        --------------------------------------------------------
                        max_scf:                                             500
                        max_scf_history:                                       0
                        max_diis:                                              4
                        --------------------------------------------------------
                        eps_scf:                                        1.00E-09
                        eps_scf_history:                                0.00E+00
                        eps_diis:                                       1.00E-01
                        eps_eigval:                                     1.00E-05
                        --------------------------------------------------------
                        level_shift [a.u.]:                             0.000000
                        added MOs                                        36    0
                        --------------------------------------------------------
                        Mixing method:                            BROYDEN_MIXING
                                                charge density mixing in g-space
                        --------------------------------------------------------
                        Smear method:                                FERMI_DIRAC
                        Electronic temperature [K]:                        300.0
                        Electronic temperature [a.u.]:                  9.50E-04
                        Accuracy threshold:                             1.00E-10
                        --------------------------------------------------------
                        No outer SCF

 PW_GRID| Information for grid number                                          1
 PW_GRID| Grid distributed over                                     8 processors
 PW_GRID| Real space group dimensions                                     8    1
 PW_GRID| the grid is blocked:                                                NO
 PW_GRID| Cutoff [a.u.]                                                    500.0
 PW_GRID| spherical cutoff:                                                   NO
 PW_GRID|   Bounds   1            -45      44                Points:          90
 PW_GRID|   Bounds   2            -45      44                Points:          90
 PW_GRID|   Bounds   3            -45      44                Points:          90
 PW_GRID| Volume element (a.u.^3)  0.6824E-03     Volume (a.u.^3)       497.4707
 PW_GRID| Grid span                                                    FULLSPACE
 PW_GRID|   Distribution                         Average         Max         Min
 PW_GRID|   G-Vectors                            91125.0       91170       91080
 PW_GRID|   G-Rays                                1012.5        1013        1012
 PW_GRID|   Real Space Points                    91125.0       97200       89100

 PW_GRID| Information for grid number                                          2
 PW_GRID| Number of the reference grid                                         1
 PW_GRID| Grid distributed over                                     8 processors
 PW_GRID| Real space group dimensions                                     8    1
 PW_GRID| the grid is blocked:                                                NO
 PW_GRID| Cutoff [a.u.]                                                    166.7
 PW_GRID| spherical cutoff:                                                   NO
 PW_GRID|   Bounds   1            -27      26                Points:          54
 PW_GRID|   Bounds   2            -27      26                Points:          54
 PW_GRID|   Bounds   3            -27      26                Points:          54
 PW_GRID| Volume element (a.u.^3)  0.3159E-02     Volume (a.u.^3)       497.4707
 PW_GRID| Grid span                                                    FULLSPACE
 PW_GRID|   Distribution                         Average         Max         Min
 PW_GRID|   G-Vectors                            19683.0       19710       19656
 PW_GRID|   G-Rays                                 364.5         365         364
 PW_GRID|   Real Space Points                    19683.0       20412       17496

 PW_GRID| Information for grid number                                          3
 PW_GRID| Number of the reference grid                                         1
 PW_GRID| Grid distributed over                                     8 processors
 PW_GRID| Real space group dimensions                                     8    1
 PW_GRID| the grid is blocked:                                                NO
 PW_GRID| Cutoff [a.u.]                                                     55.6
 PW_GRID| spherical cutoff:                                                   NO
 PW_GRID|   Bounds   1            -15      14                Points:          30
 PW_GRID|   Bounds   2            -15      14                Points:          30
 PW_GRID|   Bounds   3            -15      14                Points:          30
 PW_GRID| Volume element (a.u.^3)  0.1842E-01     Volume (a.u.^3)       497.4707
 PW_GRID| Grid span                                                    FULLSPACE
 PW_GRID|   Distribution                         Average         Max         Min
 PW_GRID|   G-Vectors                             3375.0        3390        3360
 PW_GRID|   G-Rays                                 112.5         113         112
 PW_GRID|   Real Space Points                     3375.0        3600        2700

 PW_GRID| Information for grid number                                          4
 PW_GRID| Number of the reference grid                                         1
 PW_GRID| Grid distributed over                                     8 processors
 PW_GRID| Real space group dimensions                                     8    1
 PW_GRID| the grid is blocked:                                                NO
 PW_GRID| Cutoff [a.u.]                                                     18.5
 PW_GRID| spherical cutoff:                                                   NO
 PW_GRID|   Bounds   1             -9       8                Points:          18
 PW_GRID|   Bounds   2             -9       8                Points:          18
 PW_GRID|   Bounds   3             -9       8                Points:          18
 PW_GRID| Volume element (a.u.^3)  0.8530E-01     Volume (a.u.^3)       497.4707
 PW_GRID| Grid span                                                    FULLSPACE
 PW_GRID|   Distribution                         Average         Max         Min
 PW_GRID|   G-Vectors                              729.0         738         720
 PW_GRID|   G-Rays                                  40.5          41          40
 PW_GRID|   Real Space Points                      729.0         972         648

 POISSON| Solver                                                        PERIODIC
 POISSON| Periodicity                                                        XYZ

 RS_GRID| Information for grid number                                          1
 RS_GRID|   Bounds   1            -45      44                Points:          90
 RS_GRID|   Bounds   2            -45      44                Points:          90
 RS_GRID|   Bounds   3            -45      44                Points:          90
 RS_GRID| Real space fully replicated
 RS_GRID| Group size                                                           1

 RS_GRID| Information for grid number                                          2
 RS_GRID|   Bounds   1            -27      26                Points:          54
 RS_GRID|   Bounds   2            -27      26                Points:          54
 RS_GRID|   Bounds   3            -27      26                Points:          54
 RS_GRID| Real space fully replicated
 RS_GRID| Group size                                                           1

 RS_GRID| Information for grid number                                          3
 RS_GRID|   Bounds   1            -15      14                Points:          30
 RS_GRID|   Bounds   2            -15      14                Points:          30
 RS_GRID|   Bounds   3            -15      14                Points:          30
 RS_GRID| Real space fully replicated
 RS_GRID| Group size                                                           1

 RS_GRID| Information for grid number                                          4
 RS_GRID|   Bounds   1             -9       8                Points:          18
 RS_GRID|   Bounds   2             -9       8                Points:          18
 RS_GRID|   Bounds   3             -9       8                Points:          18
 RS_GRID| Real space fully replicated
 RS_GRID| Group size                                                           1

 Number of electrons:                                                         28
 Number of occupied orbitals:                                                 14
 Number of molecular orbitals:                                                50

 Number of orbital functions:                                                 50
 Number of independent orbital functions:                                     50

 Extrapolation method: initial_guess

 Atomic guess: The first density matrix is obtained in terms of atomic orbitals
               and electronic configurations assigned to each atomic kind

 Guess for atomic kind: Sn

 Electronic structure
    Total number of core electrons                                         36.00
    Total number of valence electrons                                      14.00
    Total number of electrons                                              50.00
    Multiplicity                                                   not specified
    S   [  2.00  2.00  2.00  2.00] 2.00
    P   [  6.00  6.00  6.00] 2.00
    D   [ 10.00]10.00


 *******************************************************************************
                  Iteration          Convergence                     Energy [au]
 *******************************************************************************
                          1         5.20335                     -66.069849834905
                          2         1.33410                     -67.017057937235
                          3        0.122111                     -67.190130904298
                          4        0.156812E-02                 -67.192760995805
                          5        0.177603E-03                 -67.192764248971
                          6        0.775279E-04                 -67.192764281826
                          7        0.850709E-06                 -67.192764289563

 Energy components [Hartree]           Total Energy ::          -67.192764289563
                                        Band Energy ::          -10.165342041024
                                     Kinetic Energy ::           48.848824478093
                                   Potential Energy ::         -116.041588767656
                                      Virial (-V/T) ::            2.375524692917
                                        Core Energy ::         -118.751437814586
                                          XC Energy ::           -7.951301509364
                                     Coulomb Energy ::           59.509975034387
                       Total Pseudopotential Energy ::         -167.674544719344
                       Local Pseudopotential Energy ::         -144.681015432963
                    Nonlocal Pseudopotential Energy ::          -22.993529286381
                                        Confinement ::            0.742824266645

 Orbital energies  State     L     Occupation   Energy[a.u.]          Energy[eV]

                       1     0          2.000      -0.372042          -10.123766

                       1     1          2.000      -0.115119           -3.132540

                       1     2         10.000      -0.919102          -25.010041


 Total Electron Density at R=0:                                         0.000454
 Re-scaling the density matrix to get the right number of electrons
                  # Electrons              Trace(P)               Scaling factor
                           28                28.000                        1.000


 SCF WAVEFUNCTION OPTIMIZATION

  Step     Update method      Time    Convergence         Total energy    Change
  ------------------------------------------------------------------------------
     1 NoMix/Diag. 0.10E+00    7.6     0.60159350      -135.1702832459 -1.35E+02
     2 Broy./Diag. 0.10E+00    8.2     0.00038577      -135.2737762096 -1.03E-01
     3 Broy./Diag. 0.10E+00    8.2     0.01012225      -135.1454582333  1.28E-01
     4 Broy./Diag. 0.10E+00    8.3     0.00130925      -135.0528012519  9.27E-02
     5 Broy./Diag. 0.10E+00    8.2     0.01149497      -135.1017817331 -4.90E-02
     6 Broy./Diag. 0.10E+00    8.2     0.00041585      -135.1321617664 -3.04E-02
     7 Broy./Diag. 0.10E+00    8.3     0.00106925      -135.1275810302  4.58E-03
     8 Broy./Diag. 0.10E+00    8.2     0.00001248      -135.1272624030  3.19E-04
     9 Broy./Diag. 0.10E+00    8.2     0.00009905      -135.1270768319  1.86E-04
    10 Broy./Diag. 0.10E+00    8.2     0.00000268      -135.1269298016  1.47E-04
    11 Broy./Diag. 0.10E+00    8.2     0.00001004      -135.1270312519 -1.01E-04
    12 Broy./Diag. 0.10E+00    8.3     0.00000100      -135.1270364642 -5.21E-06
    13 Broy./Diag. 0.10E+00    8.3     0.00000350      -135.1270684191 -3.20E-05
    14 Broy./Diag. 0.10E+00    8.3     0.00000030      -135.1270922027 -2.38E-05
    15 Broy./Diag. 0.10E+00    8.3     0.00000110      -135.1270865872  5.62E-06
    16 Broy./Diag. 0.10E+00    8.3     0.00000004      -135.1270858503  7.37E-07
    17 Broy./Diag. 0.10E+00    8.2     0.00000013      -135.1270854996  3.51E-07
    18 Broy./Diag. 0.10E+00    8.2     0.00000018      -135.1270851074  3.92E-07
    19 Broy./Diag. 0.10E+00    8.3     0.00000002      -135.1270850845  2.29E-08
    20 Broy./Diag. 0.10E+00    8.3     0.00000004      -135.1270855353 -4.51E-07
    21 Broy./Diag. 0.10E+00    8.2     0.00000007      -135.1270861165 -5.81E-07
    22 Broy./Diag. 0.10E+00    8.2     0.00000001      -135.1270863542 -2.38E-07
    23 Broy./Diag. 0.10E+00    8.2     0.00000002      -135.1270863704 -1.62E-08
    24 Broy./Diag. 0.10E+00    8.3     2.3585E-09      -135.1270863795 -9.04E-09
    25 Broy./Diag. 0.10E+00    8.3     0.00000001      -135.1270863080  7.15E-08
    26 Broy./Diag. 0.10E+00    8.2     1.0651E-09      -135.1270862650  4.30E-08
    27 Broy./Diag. 0.10E+00    8.2     9.6194E-10      -135.1270862520  1.30E-08

  *** SCF run converged in    27 steps ***


  Electronic density on regular grids:        -28.0000000000       -0.0000000000
  Core density on regular grids:               28.0000000000        0.0000000000
  Total charge density on r-space grids:       -0.0000000000
  Total charge density g-space grids:          -0.0000000000

  Overlap energy of the core charge distribution:               0.00000000001088
  Self energy of the core charge distribution:               -214.71190849372030
  Core Hamiltonian energy:                                     63.55268004444144
  Hartree energy:                                              32.48923927319472
  Exchange-correlation energy:                                -16.45708267232508
  Electronic entropic energy:                                  -0.00001440360788
  Fermi energy:                                                 0.16100848913307

  Total energy:                                              -135.12708625200599

 !-----------------------------------------------------------------------------!
                     Mulliken Population Analysis

 #  Atom  Element  Kind  Atomic population                           Net charge
       1     Sn       1         14.000000                              0.000000
       2     Sn       1         14.000000                             -0.000000
 # Total charge                             28.000000                  0.000000

 !-----------------------------------------------------------------------------!

 !-----------------------------------------------------------------------------!
                           Hirshfeld Charges

  #Atom  Element  Kind  Ref Charge     Population                    Net charge
      1       Sn     1      14.000         14.000                         0.000
      2       Sn     1      14.000         14.000                        -0.000

  Total Charge                                                            0.000
 !-----------------------------------------------------------------------------!

 KPOINTS| Band Structure Calculation
 KPOINTS| Number of k-point sets                                               1
 KPOINTS| Number of added MOs/bands                                           -1
 KPOINTS| Number of k-points in set    1                                     148
 KPOINTS| In units of b-vector [2pi/Bohr]
 KPOINTS| Special point     1 not specifi     0.000000     0.000000     0.000000
 KPOINTS| Special point     2 not specifi     0.500000     0.000000     0.500000
 KPOINTS| Special point     3 not specifi     0.625000     0.250000     0.625000
 KPOINTS| Special point     4 not specifi     0.000000     0.000000     0.000000
 KPOINTS| Time for k-point line                                            2.831

 ENERGY| Total FORCE_EVAL ( QS ) energy [hartree]           -135.127086252005995

 -------------------------------------------------------------------------------
 -                                                                             -
 -                                DBCSR STATISTICS                             -
 -                                                                             -
 -------------------------------------------------------------------------------
 COUNTER                                    TOTAL       BLAS       SMM       ACC
 flops inhomo. stacks                           0       0.0%      0.0%      0.0%
 flops total                         0.000000E+00       0.0%      0.0%      0.0%
 flops max/rank                      0.000000E+00       0.0%      0.0%      0.0%
 matmuls inhomo. stacks                         0       0.0%      0.0%      0.0%
 matmuls total                                  0       0.0%      0.0%      0.0%
 number of processed stacks                     0       0.0%      0.0%      0.0%
 average stack size                                     0.0       0.0       0.0
 marketing flops                     0.000000E+00
 -------------------------------------------------------------------------------
 -                                                                             -
 -                      DBCSR MESSAGE PASSING PERFORMANCE                      -
 -                                                                             -
 -------------------------------------------------------------------------------
 ROUTINE             CALLS      AVE VOLUME [Bytes]
 MP_Bcast                1                     12.
 MP_Allreduce           19                     21.
 MP_Alltoall        613760                   4117.
 -------------------------------------------------------------------------------

 -------------------------------------------------------------------------------
 -                                                                             -
 -                                DBM STATISTICS                               -
 -                                                                             -
 -------------------------------------------------------------------------------
    M  x    N  x    K                                          COUNT     PERCENT
 -------------------------------------------------------------------------------

 -------------------------------------------------------------------------------
 -                                                                             -
 -                                GRID STATISTICS                              -
 -                                                                             -
 -------------------------------------------------------------------------------
 LP    KERNEL             BACKEND                              COUNT     PERCENT
 6     collocate general  CPU                                 403200      50.91%
 6     integrate general  CPU                                 388800      49.09%
 0     collocate general  CPU                                      4       0.00%
 0     integrate general  CPU                                      2       0.00%
 -------------------------------------------------------------------------------

 MEMORY| Estimated peak process memory [MiB]                                 512

 -------------------------------------------------------------------------------
 ----                             MULTIGRID INFO                            ----
 -------------------------------------------------------------------------------
 count for grid        1:          11210          cutoff [a.u.]          500.00
 count for grid        2:          30764          cutoff [a.u.]          166.67
 count for grid        3:          21574          cutoff [a.u.]           55.56
 count for grid        4:          16980          cutoff [a.u.]           18.52
 total gridlevel count  :          80528

 -------------------------------------------------------------------------------
 -                                                                             -
 -                         MESSAGE PASSING PERFORMANCE                         -
 -                                                                             -
 -------------------------------------------------------------------------------

 ROUTINE             CALLS      AVE VOLUME [Bytes]
 MP_Group                6
 MP_Bcast           253468                  17273.
 MP_Allreduce       125656                     32.
 MP_Sync                 4
 MP_Alltoall           491                4003937.
 MP_SendRecv           798                 253723.
 MP_ISendRecv          763                 249260.
 MP_Wait            174351
 MP_comm_split           4
 MP_ISend           184844                    612.
 MP_IRecv           295040                    376.
 -------------------------------------------------------------------------------


 -------------------------------------------------------------------------------
 -                                                                             -
 -                           R E F E R E N C E S                               -
 -                                                                             -
 -------------------------------------------------------------------------------
 
 CP2K version 2025.1 (Development Version), the CP2K developers group (2025).
 CP2K is freely available from https://www.cp2k.org/ .
 
 T. D. Kuehne, M. Iannuzzi, M. Del Ben, V. V. Rybkin, P. Seewald, F. Stein, T. 
 Laino, R. Z. Khaliullin, O. Schuett, F. Schiffmann, D. Golze, J. Wilhelm, S. 
 Chulkov, M. H. Bani-Hashemian, V. Weber, U. Borstnik, M. Taillefumier, A. S. 
 Jakobovits, A. Lazzaro, H. Pabst, T. Mueller, R. Schade, M. Guidon, S. 
 Andermatt, N. Holmberg, G. K. Schenter, A. Hehn, A. Bussy, F. Belleflamme, G. 
 Tabacchi, A. Gloess, M. Lass, I. Bethune, C. J. Mundy, C. Plessl, M. Watkins, 
 J. VandeVondele, M. Krack, J. Hutter.
 J. Chem. Phys. 152, 194103 (2020).
 CP2K: An electronic structure and molecular dynamics software package - 
 Quickstep: Efficient and accurate electronic structure calculations.
 https://doi.org/10.1063/5.0007045

 O. Schuett, P. Messmer, J. Hutter, J. VandeVondele.
 Electronic Structure Calculations on Graphics Processing Units, 173-190 (2016).
 GPU-Accelerated Sparse Matrix-Matrix Multiplication for Linear Scaling Density 
 Functional Theory.
 https://doi.org/10.1002/9781118670712.ch8

 J. Hutter, M. Iannuzzi, F. Schiffmann, J. VandeVondele.
 WIREs Comput Mol Sci. 4, 15-25 (2014).
 CP2K: atomistic simulations of condensed matter systems.
 https://doi.org/10.1002/wcms.1159

 U. Borstnik, J. VandeVondele, V. Weber, J. Hutter.
 Parallel Comput. 40, 47-58 (2014).
 Sparse matrix multiplication: The distributed block-compressed sparse row 
 library.
 https://doi.org/10.1016/j.parco.2014.03.012

 J. VandeVondele, J. Hutter.
 J. Chem. Phys. 127, 114105 (2007).
 Gaussian basis sets for accurate calculations on molecular systems in gas and 
 condensed phases.
 https://doi.org/10.1063/1.2770708

 J. VandeVondele, M. Krack, F. Mohamed, M. Parrinello, T. Chassaing, J. Hutter.
 Comput. Phys. Commun. 167, 103-128 (2005).
 QUICKSTEP: Fast and accurate density functional calculations using a mixed 
 Gaussian and plane waves approach.
 https://doi.org/10.1016/j.cpc.2004.12.014

 M. Krack.
 Theor. Chem. Acc. 114, 145-152 (2005).
 Pseudopotentials for H to Kr optimized for gradient-corrected 
 exchange-correlation functionals.
 https://doi.org/10.1007/s00214-005-0655-y

 M. Frigo, S. G. Johnson.
 Proc. IEEE 93, 216-231 (2005).
 The design and implementation of FFTW3.
 https://doi.org/10.1109/JPROC.2004.840301

 C. Hartwigsen, S. Goedecker, J. Hutter.
 Phys. Rev. B 58, 3641-3662 (1998).
 Relativistic separable dual-space Gaussian pseudopotentials from H to Rn.
 https://doi.org/10.1103/PhysRevB.58.3641

 G. Lippert, J. Hutter, M. Parrinello.
 Mol. Phys. 92, 477-487 (1997).
 A hybrid Gaussian and plane wave density functional scheme.
 https://doi.org/10.1080/002689797170220

 S. Goedecker, M. Teter, J. Hutter.
 Phys. Rev. B 54, 1703-1710 (1996).
 Separable dual-space Gaussian pseudopotentials.
 https://doi.org/10.1103/PhysRevB.54.1703

 J. P. Perdew, K. Burke, M. Ernzerhof.
 Phys. Rev. Lett. 77, 3865-3868 (1996).
 Generalized gradient approximation made simple.
 https://doi.org/10.1103/PhysRevLett.77.3865


 -------------------------------------------------------------------------------
 -                                                                             -
 -                                T I M I N G                                  -
 -                                                                             -
 -------------------------------------------------------------------------------
 SUBROUTINE                       CALLS  ASD         SELF TIME        TOTAL TIME
                                MAXIMUM       AVERAGE  MAXIMUM  AVERAGE  MAXIMUM
 CP2K                                 1  1.0    0.016    0.019  231.874  231.874
 qs_energies                          1  2.0    0.008    0.028  230.682  230.694
 scf_env_do_scf                       1  3.0    0.000    0.000  225.130  225.130
 scf_env_do_scf_inner_loop           27  4.0    0.037    0.041  225.130  225.130
 do_general_diag_kp                  28  5.9    0.154    0.193  199.860  203.883
 qs_scf_new_mos_kp                   27  5.0    0.000    0.000  197.079  201.087
 mp_alltoall_i22                 104696  8.8  146.020  179.422  146.020  179.422
 dbcsr_desymmetrize_deep          59556  7.4    0.883    1.078  110.019  133.882
 rskp_transform                   14120  6.9   19.565  105.738   19.565  105.738
 dbcsr_complete_redistribute      45140  8.2    1.446    1.761   53.694   63.009
 kpoint_density_transform            27  7.0    0.074    0.094   55.050   55.201
 copy_fm_to_dbcsr                 13824  8.0    0.081    0.095   44.260   53.466
 transform_dmat                    6912  8.0    9.221   49.519    9.221   49.519
 qs_ks_update_qs_env                 27  5.0    0.000    0.000    6.587   23.948
 rebuild_ks_matrix                   27  6.0    0.000    0.000    5.310   22.671
 qs_ks_build_kohn_sham_matrix        27  7.0    0.069    0.071    5.310   22.671
 sum_up_and_integrate                27  8.0    0.000    0.000    4.334   21.661
 integrate_v_rspace                  27  9.0    0.030    0.155    4.333   21.660
 grid_integrate_task_list            27 10.0    4.017   21.253    4.017   21.253
 transfer_rs2pw                     114  8.0    0.002    0.002   15.328   18.864
 transfer_rs2pw_500                  30  8.9    0.082    0.090   15.275   18.810
 mp_sendrecv_dv                     798 10.0   15.225   18.761   15.225   18.761
 qs_rho_update_rho_low               28  5.0    0.000    0.000   18.220   18.232
 calculate_rho_elec                  28  6.0    0.024    0.047   18.220   18.232
 density_rs2pw                       28  7.0    0.001    0.001   14.705   18.060
 grid_collocate_task_list            28  7.0    3.486   17.756    3.486   17.756
 copy_dbcsr_to_fm                 31316  6.8    0.308    0.348   15.250   15.404
 dbcsr_finalize                  129632  8.2    0.517    0.559    3.665    3.954
 cp_fm_start_copy_general         42064  7.3    0.587    0.872    3.602    3.683
 mp_alltoall_d11v                314088  9.3    3.292    3.532    3.292    3.532
 mp_cart_sub                      62634  8.8    2.617    2.636    2.617    2.636
 hybrid_alltoall_any              59556  8.4    0.234    0.264    2.171    2.338
 write_kpoints_restart               27  5.0    0.012    0.016    2.281    2.281
 dbcsr_merge_all                  45140 10.2    1.261    1.382    2.121    2.270
 mp_alltoall_i11v                194976  9.0    1.840    1.890    1.840    1.890
 mp_allgather_i                   84128  8.3    1.502    1.623    1.502    1.623
 dbcsr_dot                        83053  8.0    0.359    0.562    1.530    1.606
 mp_cart_create                   31323  8.8    1.462    1.526    1.462    1.526
 cp_cfm_geeig_canon                 901  6.9    0.006    0.006    1.439    1.463
 cp_dbcsr_alloc_block_from_nbl    10930  5.0    0.265    1.295    0.297    1.413
 cp_cfm_heevd                      1802  7.9    0.002    0.002    1.331    1.354
 cp_cfm_heevd_base                 1802  8.9    1.329    1.352    1.329    1.352
 mp_sum_d                         83687  9.0    1.139    1.317    1.139    1.317
 qs_energies_init_hamiltonians        1  3.0    0.000    0.000    1.305    1.305
 evaluate_core_matrix_traces         27  6.0    0.000    0.000    1.277    1.277
 calculate_ptrace_kp                 54  7.0    0.063    0.068    1.277    1.277
 mp_bcast_iv                     168408  8.3    1.027    1.177    1.027    1.177
 dbcsr_create_new                243847  7.9    0.836    0.922    1.007    1.118
 init_scf_run                         1  3.0    0.000    0.000    1.027    1.102
 scf_env_initial_rho_setup            1  4.0    0.000    0.000    1.027    1.102
 dbcsr_work_create               104696  8.8    0.615    0.657    0.994    1.095
 create_qs_kind_set                   1  2.0    0.000    0.000    1.030    1.030
 read_qs_kind                         1  3.0    0.605    0.615    1.030    1.030
 dbcsr_copy                       98414  6.8    0.487    0.546    0.821    1.028
 build_core_hamiltonian_matrix        1  4.0    0.006    0.006    0.268    1.022
 qs_env_update_s_mstruct              1  4.0    0.000    0.000    0.833    0.980
 calculate_rho_core                   1  5.0    0.001    0.003    0.773    0.965
 self_consistency_check              27  5.0    0.059    0.064    0.866    0.902
 dbcsr_iterator_start            411374  8.8    0.742    0.770    0.850    0.871
 cp_fm_write_unformatted           3076  6.0    0.604    0.781    0.611    0.811
 cp_sm_mix                        41526  6.0    0.118    0.230    0.744    0.793
 fft_wrap_pw1pw2                    491 10.0    0.004    0.005    0.758    0.783
 dbcsr_data_new                 1137567  9.6    0.667    0.779    0.667    0.779
 dbcsr_work_destroy_all          104696  9.8    0.495    0.504    0.745    0.764
 fft_wrap_pw1pw2_500                326 11.3    0.050    0.051    0.695    0.719
 tree_to_linear_d                 45140 11.2    0.683    0.701    0.683    0.701
 copy_fm_to_dbcsr_bc              13824  9.0    0.175    0.198    0.605    0.679
 copy_dbcsr_to_fm_bc              31316  7.8    0.298    0.309    0.665    0.676
 fft3d_ps                           491 12.0    0.252    0.266    0.622    0.649
 dbcsr_data_release             1668053 10.0    0.567    0.612    0.567    0.612
 mp_max_d                         41528  7.0    0.527    0.602    0.527    0.602
 dbcsr_iterator_stop             411374  8.8    0.477    0.483    0.565    0.571
 dbcsr_destroy                   160795  7.9    0.257    0.286    0.467    0.526
 kpoint_set_mo_occupation            27  7.0    0.460    0.461    0.485    0.499
 qs_vxc_create                       27  8.0    0.000    0.000    0.494    0.495
 xc_vxc_pw_create                    27  9.0    0.020    0.021    0.493    0.495
 parser_read_line                132486  4.0    0.043    0.046    0.483    0.486
 parser_read_line_low               151  5.2    0.049    0.217    0.440    0.444
 gspace_mixing                       26  5.0    0.017    0.018    0.426    0.426
 mixing_allocate                      1  3.0    0.009    0.009    0.106    0.424
 broadcast_input_information        151  6.2    0.097    0.102    0.391    0.420
 calculate_first_density_matrix       1  5.0    0.001    0.001    0.325    0.399
 calculate_atomic_block_dm            1  6.0    0.001    0.001    0.322    0.396
 mp_alltoall_z22v                   491 14.0    0.324    0.364    0.324    0.364
 mp_bcast_im                      84128  8.3    0.313    0.362    0.313    0.362
 broyden_mixing                      26  6.0    0.331    0.342    0.344    0.350
 quick_finalize                   59556  9.4    0.149    0.194    0.248    0.339
 dbcsr_set                       165769  7.5    0.146    0.156    0.222    0.339
 dbcsr_copy_into_existing         15362  9.6    0.116    0.249    0.201    0.338
 mp_waitall_1                    174351  8.3    0.168    0.328    0.168    0.328
 xc_pw_derive                       162 11.0    0.001    0.001    0.316    0.321
 potential_pw2rs                     27 10.0    0.002    0.002    0.286    0.305
 xc_rho_set_and_dset_create          27 10.0    0.011    0.014    0.257    0.262
 mp_comm_free                     93993  8.8    0.215    0.261    0.215    0.261
 build_overlap_matrix_low             1  5.0    0.016    0.039    0.063    0.243
 build_kinetic_matrix_low             1  5.0    0.015    0.038    0.062    0.241
 calculate_ecore_overlap              1  4.0    0.000    0.000    0.189    0.234
 cp_fm_finish_copy_general        17428  7.8    0.161    0.187    0.184    0.227
 xc_pw_divergence                    27 10.0    0.000    0.000    0.211    0.215
 qs_env_rebuild_rho                   1  5.0    0.000    0.000    0.052    0.211
 qs_rho_rebuild                       1  6.0    0.004    0.004    0.052    0.211
 mp_bcast_i_src                     604  7.2    0.178    0.209    0.178    0.209
 x_to_yz                            270 13.2    0.026    0.030    0.190    0.204
 yz_to_x                            221 12.8    0.016    0.016    0.176    0.203
 dbcsr_reserve_blocks             24754  8.8    0.086    0.177    0.102    0.201
 kpoint_density_matrices             27  7.0    0.011    0.012    0.170    0.198
 mp_sum_iv                           24  5.3    0.159    0.196    0.159    0.196
 qs_scf_ensure_work_matrices          1  3.0    0.000    0.000    0.159    0.196
 parallel_gemm_fm                  3456  8.0    0.003    0.003    0.156    0.184
 dbcsr_zero                      165769  8.5    0.076    0.182    0.076    0.182
 parallel_gemm_fm_gemm             3456  9.0    0.003    0.003    0.153    0.180
 cp_fm_gemm                        3456 10.0    0.150    0.177    0.150    0.177
 transfer_pw2rs                     109 11.0    0.001    0.001    0.173    0.173
 build_core_ppnl                      1  5.0    0.042    0.172    0.042    0.172
 dbcsr_sort_indices              129450 10.9    0.073    0.135    0.073    0.135
 dbcsr_iterator_seek             411374  9.8    0.109    0.134    0.109    0.134
 dbcsr_make_index_exist          243847  8.9    0.111    0.129    0.111    0.129
 transfer_pw2rs_500                  28 11.9    0.068    0.070    0.127    0.129
 build_core_ppl                       1  5.0    0.025    0.118    0.025    0.118
 mp_bcast_am_src                    151  7.2    0.101    0.107    0.113    0.118
 dbcsr_reserve_all_blocks         13824 10.0    0.020    0.025    0.094    0.111
 cp_cfm_gemm                       2703  7.9    0.093    0.096    0.093    0.096
 merge_index                      45140 11.2    0.090    0.096    0.090    0.096
 xc_functional_eval                  27 11.0    0.000    0.000    0.086    0.091
 pbe_lda_eval                        27 12.0    0.085    0.091    0.085    0.091
 mp_irecv_iv                     168256  8.3    0.010    0.083    0.010    0.083
 mp_isend_dv                      42656  8.2    0.068    0.077    0.068    0.077
 dbcsr_switch_data_area           59556 10.4    0.054    0.054    0.071    0.073
 scf_post_calculation_gpw             1  3.0    0.000    0.000    0.072    0.072
 write_available_results              1  4.0    0.000    0.000    0.071    0.071
 write_mo_free_results                1  5.0    0.001    0.001    0.071    0.071
 topology_control                     1  2.0    0.000    0.000    0.064    0.064
 cp_fm_cleanup_copy_general       29968  7.0    0.038    0.041    0.059    0.064
 mp_sum_dv                          322  3.3    0.047    0.063    0.047    0.063
 mp_isend_iv                      94792  8.3    0.015    0.058    0.015    0.058
 dbcsr_data_copy_aa2              45140 11.0    0.027    0.053    0.027    0.053
 mp_isendrecv_dv                    763 13.0    0.016    0.046    0.016    0.046
 pw_scatter_p                       270 12.2    0.044    0.045    0.044    0.045
 read_cell_cif                        2  4.5    0.002    0.004    0.044    0.045
 pw_poisson_solve                    27  8.0    0.000    0.000    0.044    0.044
 dbcsr_distribution_new           45142  8.5    0.034    0.043    0.034    0.043
 fft_wrap_pw1pw2_170                 55 10.5    0.003    0.003    0.040    0.042
 mp_irecv_im2                     84128  8.3    0.005    0.041    0.005    0.041
 qs_init_subsys                       1  2.0    0.002    0.002    0.041    0.041
 mp_sum_dm3                          27  8.0    0.025    0.040    0.025    0.040
 transfer_rs2pw_170                  28  9.0    0.015    0.016    0.038    0.039
 dbcsr_get_data_size_used        104696  9.8    0.033    0.039    0.033    0.039
 qs_env_setup                         1  3.0    0.000    0.000    0.038    0.039
 coordinate_control                   1  3.0    0.000    0.001    0.038    0.038
 qs_create_task_list                  1  5.0    0.000    0.000    0.007    0.038
 generate_qs_task_list                1  6.0    0.006    0.031    0.007    0.038
 coordinate_control_READ_COORDI       1  4.0    0.000    0.000    0.038    0.038
 read_coordinate_cif                  1  5.0    0.002    0.002    0.038    0.038
 qs_env_rebuild_pw_env                2  3.5    0.000    0.000    0.037    0.038
 pw_env_rebuild                       1  5.0    0.000    0.001    0.037    0.038
 pw_grid_setup                        4  6.0    0.000    0.000    0.036    0.036
 pw_grid_setup_internal               4  7.0    0.001    0.001    0.035    0.036
 transfer_pw2rs_170                  27 12.0    0.015    0.016    0.033    0.036
 dbcsr_make_dbcsr_index          129450 10.8    0.032    0.033    0.032    0.033
 hirshfeld_integration                1  6.0    0.007    0.027    0.031    0.031
 mp_recv_dv                        9228  7.0    0.004    0.030    0.004    0.030
 calculate_hirshfeld_normalizat       1  6.0    0.006    0.023    0.028    0.028
 mp_irecv_dv                      42656  8.2    0.025    0.027    0.025    0.027
 pw_integral_ab_c1d_c1d_gs           27  9.0    0.025    0.026    0.027    0.027
 mp_isend_im2                     47396  8.3    0.007    0.026    0.007    0.026
 mp_comm_size                     84019  9.0    0.021    0.026    0.021    0.026
 kpoint_init_cell_index               2  3.5    0.015    0.019    0.022    0.025
 pw_gather_p                        221 11.8    0.024    0.025    0.024    0.025
 restraint_control                    1  2.0    0.000    0.000    0.012    0.023
 mp_sum_i                             4  2.8    0.012    0.023    0.012    0.023
 -------------------------------------------------------------------------------

 The number of warnings for this run is : 1
 
 -------------------------------------------------------------------------------
  **** **** ******  **  PROGRAM ENDED AT                 2025-08-09 19:24:27.616
 ***** ** ***  *** **   PROGRAM RAN ON                              i01r07c05s04
 **    ****   ******    PROGRAM RAN BY                                   di38fab
 ***** **    ** ** **   PROGRAM PROCESS ID                                560189
  **** **  *******  **  PROGRAM STOPPED IN /hppfs/scratch/04/di38fab/09_GTH/Delt
                                           a_Set/Sn/DZVP-MOLOPT-PBE-GTH/8x8x8
