 DBCSR| CPU Multiplication driver                                           BLAS (U)
 DBCSR| Multrec recursion limit                                              512 (U)
 DBCSR| Multiplication stack size                                           1000 (D)
 DBCSR| Maximum elements for images                                    UNLIMITED (U)
 DBCSR| Multiplicative factor virtual images                                   1 (U)
 DBCSR| Use multiplication densification                                       T (D)
 DBCSR| Multiplication size stacks                                             3 (U)
 DBCSR| Use memory pool for CPU allocation                                     F (U)
 DBCSR| Number of 3D layers                                               SINGLE (U)
 DBCSR| Use MPI memory allocation                                              F (U)
 DBCSR| Use RMA algorithm                                                      F (U)
 DBCSR| Use Communication thread                                               T (U)
 DBCSR| Communication thread load                                             45 (D)
 DBCSR| MPI: My process id                                                     0
 DBCSR| MPI: Number of processes                                               8
 DBCSR| OMP: Current number of threads                                        12
 DBCSR| OMP: Max number of threads                                            12
 DBCSR| Split modifier for TAS multiplication algorithm                  1.0E+00 (U)


  **** **** ******  **  PROGRAM STARTED AT               2025-08-04 23:43:00.891
 ***** ** ***  *** **   PROGRAM STARTED ON                          i04r10c01s10
 **    ****   ******    PROGRAM STARTED BY                               di38fab
 ***** **    ** ** **   PROGRAM PROCESS ID                                114557
  **** **  *******  **  PROGRAM STARTED IN /hppfs/scratch/04/di38fab/09_GTH/Delt
                                           a_Set/Ar/aug-DZVP-MOLOPT-GTH-tier-1/8
                                           x8x8

 CP2K| version string:                 CP2K version 2025.1 (Development Version)
 CP2K| source code revision number:                                  git:3130539
 CP2K| cp2kflags: omp libint fftw3 libxc parallel scalapack max_contr=4         
 CP2K| is freely available from                            https://www.cp2k.org/
 CP2K| Program compiled at                         Tue Jun  3 16:14:32 CEST 2025
 CP2K| Program compiled on                                               login01
 CP2K| Program compiled for                                        Supermuc-foss
 CP2K| Data directory path                  /hppfs/work/pn36zo/di38fab/cp2k/data
 CP2K| Input file name                                                    GW.inp

 GLOBAL| Force Environment number                                              1
 GLOBAL| Basis set file name            /hppfs/scratch/04/di38fab/09_GTH/BASIS_A
 GLOBAL| Potential file name            /hppfs/work/pn36zo/di38fab/cp2k/data/GTH
 GLOBAL| MM Potential file name                                     MM_POTENTIAL
 GLOBAL| Coordinate file name                                             Ar.cif
 GLOBAL| Method name                                                        CP2K
 GLOBAL| Project name                                                       WSe2
 GLOBAL| Run type                                                         ENERGY
 GLOBAL| FFT library                                                       FFTW3
 GLOBAL| Diagonalization library                                       ScaLAPACK
 GLOBAL| Cholesky decomposition library                                ScaLAPACK
 GLOBAL| DGEMM library                                                      BLAS
 GLOBAL| Orthonormality check for eigenvectors                          DISABLED
 GLOBAL| Matrix multiplication library                                 ScaLAPACK
 GLOBAL| All-to-all communication in single precision                          F
 GLOBAL| FFTs using library dependent lengths                                  F
 GLOBAL| Grid backend                                                       AUTO
 GLOBAL| Global print level                                               MEDIUM
 GLOBAL| MPI I/O enabled                                                       T
 GLOBAL| Total number of message passing processes                             8
 GLOBAL| Number of threads for this process                                   12
 GLOBAL| This output is from process                                           0
 GLOBAL| OpenMP stack size per thread (OMP_STACKSIZE)                    default
 GLOBAL| CPU model name             Intel(R) Xeon(R) Platinum 8174 CPU @ 3.10GHz

 MEMORY| system memory details [Kb]
 MEMORY|                        rank 0           min           max       average
 MEMORY| MemTotal             98436664      98436664      98436664      98436664
 MEMORY| MemFree              84436724      84436724      84530068      84483396
 MEMORY| Buffers                     0             0             0             0
 MEMORY| Cached                2386456       2368560       2386456       2377508
 MEMORY| Slab                  1306008       1306008       1307916       1306962
 MEMORY| SReclaimable           289612        289612        291064        290338
 MEMORY| MemLikelyFree        87112792      87112792      87189692      87151242


 *** Fundamental physical constants (SI units) ***

 *** Literature: B. J. Mohr and B. N. Taylor,
 ***             CODATA recommended values of the fundamental physical
 ***             constants: 2006, Web Version 5.1
 ***             http://physics.nist.gov/constants

 Speed of light in vacuum [m/s]                             2.99792458000000E+08
 Magnetic constant or permeability of vacuum [N/A**2]       1.25663706143592E-06
 Electric constant or permittivity of vacuum [F/m]          8.85418781762039E-12
 Planck constant (h) [J*s]                                  6.62606896000000E-34
 Planck constant (h-bar) [J*s]                              1.05457162825177E-34
 Elementary charge [C]                                      1.60217648700000E-19
 Electron mass [kg]                                         9.10938215000000E-31
 Electron g factor [ ]                                     -2.00231930436220E+00
 Proton mass [kg]                                           1.67262163700000E-27
 Fine-structure constant                                    7.29735253760000E-03
 Rydberg constant [1/m]                                     1.09737315685270E+07
 Avogadro constant [1/mol]                                  6.02214179000000E+23
 Boltzmann constant [J/K]                                   1.38065040000000E-23
 Atomic mass unit [kg]                                      1.66053878200000E-27
 Bohr radius [m]                                            5.29177208590000E-11

 *** Conversion factors ***

 [u] -> [a.u.]                                              1.82288848426455E+03
 [Angstrom] -> [Bohr] = [a.u.]                              1.88972613288564E+00
 [a.u.] = [Bohr] -> [Angstrom]                              5.29177208590000E-01
 [a.u.] -> [s]                                              2.41888432650478E-17
 [a.u.] -> [fs]                                             2.41888432650478E-02
 [a.u.] -> [J]                                              4.35974393937059E-18
 [a.u.] -> [N]                                              8.23872205491840E-08
 [a.u.] -> [K]                                              3.15774647902944E+05
 [a.u.] -> [kJ/mol]                                         2.62549961709828E+03
 [a.u.] -> [kcal/mol]                                       6.27509468713739E+02
 [a.u.] -> [Pa]                                             2.94210107994716E+13
 [a.u.] -> [bar]                                            2.94210107994716E+08
 [a.u.] -> [atm]                                            2.90362800883016E+08
 [a.u.] -> [eV]                                             2.72113838565563E+01
 [a.u.] -> [Hz]                                             6.57968392072181E+15
 [a.u.] -> [1/cm] (wave numbers)                            2.19474631370540E+05
 [a.u./Bohr**2] -> [1/cm]                                   5.14048714338585E+03
 

 CELL_TOP| Volume [angstrom^3]:                                       210.707544
 CELL_TOP| Vector a [angstrom     5.951     0.000     0.000   |a| =     5.950590
 CELL_TOP| Vector b [angstrom     0.000     5.951     0.000   |b| =     5.950590
 CELL_TOP| Vector c [angstrom     0.000     0.000     5.951   |c| =     5.950590
 CELL_TOP| Angle (b,c), alpha [degree]:                                90.000000
 CELL_TOP| Angle (a,c), beta  [degree]:                                90.000000
 CELL_TOP| Angle (a,b), gamma [degree]:                                90.000000
 CELL_TOP| Numerically orthorhombic:                                         YES
 CELL_TOP| Periodicity                                                       XYZ

 CELL_CIF| Volume [angstrom^3]:                                       210.707544
 CELL_CIF| Vector a [angstrom     5.951     0.000     0.000   |a| =     5.950590
 CELL_CIF| Vector b [angstrom     0.000     5.951     0.000   |b| =     5.950590
 CELL_CIF| Vector c [angstrom     0.000     0.000     5.951   |c| =     5.950590
 CELL_CIF| Angle (b,c), alpha [degree]:                                90.000000
 CELL_CIF| Angle (a,c), beta  [degree]:                                90.000000
 CELL_CIF| Angle (a,b), gamma [degree]:                                90.000000
 CELL_CIF| Numerically orthorhombic:                                         YES
 CELL_CIF| Periodicity                                                       XYZ

 GENERATE|  Preliminary Number of Bonds generated:                             0
 GENERATE|  Achieved consistency in connectivity generation.

 CELL| Volume [angstrom^3]:                                           210.707544
 CELL| Vector a [angstrom]:       5.951     0.000     0.000   |a| =     5.950590
 CELL| Vector b [angstrom]:       0.000     5.951     0.000   |b| =     5.950590
 CELL| Vector c [angstrom]:       0.000     0.000     5.951   |c| =     5.950590
 CELL| Angle (b,c), alpha [degree]:                                    90.000000
 CELL| Angle (a,c), beta  [degree]:                                    90.000000
 CELL| Angle (a,b), gamma [degree]:                                    90.000000
 CELL| Numerically orthorhombic:                                             YES
 CELL| Periodicity                                                           XYZ

 CELL_REF| Volume [angstrom^3]:                                       210.707544
 CELL_REF| Vector a [angstrom     5.951     0.000     0.000   |a| =     5.950590
 CELL_REF| Vector b [angstrom     0.000     5.951     0.000   |b| =     5.950590
 CELL_REF| Vector c [angstrom     0.000     0.000     5.951   |c| =     5.950590
 CELL_REF| Angle (b,c), alpha [degree]:                                90.000000
 CELL_REF| Angle (a,c), beta  [degree]:                                90.000000
 CELL_REF| Angle (a,b), gamma [degree]:                                90.000000
 CELL_REF| Numerically orthorhombic:                                         YES
 CELL_REF| Periodicity                                                       XYZ

 *** WARNING in cryssym.F:180 :: Symmetry library SPGLIB not available ***


 *******************************************************************************
                                    Kpoints
 *******************************************************************************
 BRILLOUIN| K-point scheme                                        Monkhorst-Pack
 BRILLOUIN| K-Point grid                                             8    8    8
 BRILLOUIN| Accuracy in Symmetry determination                      0.100000E-05
 BRILLOUIN| K-Point point group symmetrization                               OFF
 BRILLOUIN| Wavefunction type                                            COMPLEX
 BRILLOUIN| List of Kpoints [2 Pi/Bohr]                                      256
 BRILLOUIN| Number           Weight            X              Y              Z
 BRILLOUIN|     1           0.00391       -0.43750       -0.43750       -0.43750
 BRILLOUIN|     2           0.00391       -0.43750       -0.43750       -0.31250
 BRILLOUIN|     3           0.00391       -0.43750       -0.43750       -0.18750
 BRILLOUIN|     4           0.00391       -0.43750       -0.43750       -0.06250
 BRILLOUIN|     5           0.00391       -0.43750       -0.43750        0.06250
 BRILLOUIN|     6           0.00391       -0.43750       -0.43750        0.18750
 BRILLOUIN|     7           0.00391       -0.43750       -0.43750        0.31250
 BRILLOUIN|     8           0.00391       -0.43750       -0.43750        0.43750
 BRILLOUIN|     9           0.00391       -0.43750       -0.31250       -0.43750
 BRILLOUIN|    10           0.00391       -0.43750       -0.31250       -0.31250
 BRILLOUIN|    11           0.00391       -0.43750       -0.31250       -0.18750
 BRILLOUIN|    12           0.00391       -0.43750       -0.31250       -0.06250
 BRILLOUIN|    13           0.00391       -0.43750       -0.31250        0.06250
 BRILLOUIN|    14           0.00391       -0.43750       -0.31250        0.18750
 BRILLOUIN|    15           0.00391       -0.43750       -0.31250        0.31250
 BRILLOUIN|    16           0.00391       -0.43750       -0.31250        0.43750
 BRILLOUIN|    17           0.00391       -0.43750       -0.18750       -0.43750
 BRILLOUIN|    18           0.00391       -0.43750       -0.18750       -0.31250
 BRILLOUIN|    19           0.00391       -0.43750       -0.18750       -0.18750
 BRILLOUIN|    20           0.00391       -0.43750       -0.18750       -0.06250
 BRILLOUIN|    21           0.00391       -0.43750       -0.18750        0.06250
 BRILLOUIN|    22           0.00391       -0.43750       -0.18750        0.18750
 BRILLOUIN|    23           0.00391       -0.43750       -0.18750        0.31250
 BRILLOUIN|    24           0.00391       -0.43750       -0.18750        0.43750
 BRILLOUIN|    25           0.00391       -0.43750       -0.06250       -0.43750
 BRILLOUIN|    26           0.00391       -0.43750       -0.06250       -0.31250
 BRILLOUIN|    27           0.00391       -0.43750       -0.06250       -0.18750
 BRILLOUIN|    28           0.00391       -0.43750       -0.06250       -0.06250
 BRILLOUIN|    29           0.00391       -0.43750       -0.06250        0.06250
 BRILLOUIN|    30           0.00391       -0.43750       -0.06250        0.18750
 BRILLOUIN|    31           0.00391       -0.43750       -0.06250        0.31250
 BRILLOUIN|    32           0.00391       -0.43750       -0.06250        0.43750
 BRILLOUIN|    33           0.00391       -0.43750        0.06250       -0.43750
 BRILLOUIN|    34           0.00391       -0.43750        0.06250       -0.31250
 BRILLOUIN|    35           0.00391       -0.43750        0.06250       -0.18750
 BRILLOUIN|    36           0.00391       -0.43750        0.06250       -0.06250
 BRILLOUIN|    37           0.00391       -0.43750        0.06250        0.06250
 BRILLOUIN|    38           0.00391       -0.43750        0.06250        0.18750
 BRILLOUIN|    39           0.00391       -0.43750        0.06250        0.31250
 BRILLOUIN|    40           0.00391       -0.43750        0.06250        0.43750
 BRILLOUIN|    41           0.00391       -0.43750        0.18750       -0.43750
 BRILLOUIN|    42           0.00391       -0.43750        0.18750       -0.31250
 BRILLOUIN|    43           0.00391       -0.43750        0.18750       -0.18750
 BRILLOUIN|    44           0.00391       -0.43750        0.18750       -0.06250
 BRILLOUIN|    45           0.00391       -0.43750        0.18750        0.06250
 BRILLOUIN|    46           0.00391       -0.43750        0.18750        0.18750
 BRILLOUIN|    47           0.00391       -0.43750        0.18750        0.31250
 BRILLOUIN|    48           0.00391       -0.43750        0.18750        0.43750
 BRILLOUIN|    49           0.00391       -0.43750        0.31250       -0.43750
 BRILLOUIN|    50           0.00391       -0.43750        0.31250       -0.31250
 BRILLOUIN|    51           0.00391       -0.43750        0.31250       -0.18750
 BRILLOUIN|    52           0.00391       -0.43750        0.31250       -0.06250
 BRILLOUIN|    53           0.00391       -0.43750        0.31250        0.06250
 BRILLOUIN|    54           0.00391       -0.43750        0.31250        0.18750
 BRILLOUIN|    55           0.00391       -0.43750        0.31250        0.31250
 BRILLOUIN|    56           0.00391       -0.43750        0.31250        0.43750
 BRILLOUIN|    57           0.00391       -0.43750        0.43750       -0.43750
 BRILLOUIN|    58           0.00391       -0.43750        0.43750       -0.31250
 BRILLOUIN|    59           0.00391       -0.43750        0.43750       -0.18750
 BRILLOUIN|    60           0.00391       -0.43750        0.43750       -0.06250
 BRILLOUIN|    61           0.00391       -0.43750        0.43750        0.06250
 BRILLOUIN|    62           0.00391       -0.43750        0.43750        0.18750
 BRILLOUIN|    63           0.00391       -0.43750        0.43750        0.31250
 BRILLOUIN|    64           0.00391       -0.43750        0.43750        0.43750
 BRILLOUIN|    65           0.00391       -0.31250       -0.43750       -0.43750
 BRILLOUIN|    66           0.00391       -0.31250       -0.43750       -0.31250
 BRILLOUIN|    67           0.00391       -0.31250       -0.43750       -0.18750
 BRILLOUIN|    68           0.00391       -0.31250       -0.43750       -0.06250
 BRILLOUIN|    69           0.00391       -0.31250       -0.43750        0.06250
 BRILLOUIN|    70           0.00391       -0.31250       -0.43750        0.18750
 BRILLOUIN|    71           0.00391       -0.31250       -0.43750        0.31250
 BRILLOUIN|    72           0.00391       -0.31250       -0.43750        0.43750
 BRILLOUIN|    73           0.00391       -0.31250       -0.31250       -0.43750
 BRILLOUIN|    74           0.00391       -0.31250       -0.31250       -0.31250
 BRILLOUIN|    75           0.00391       -0.31250       -0.31250       -0.18750
 BRILLOUIN|    76           0.00391       -0.31250       -0.31250       -0.06250
 BRILLOUIN|    77           0.00391       -0.31250       -0.31250        0.06250
 BRILLOUIN|    78           0.00391       -0.31250       -0.31250        0.18750
 BRILLOUIN|    79           0.00391       -0.31250       -0.31250        0.31250
 BRILLOUIN|    80           0.00391       -0.31250       -0.31250        0.43750
 BRILLOUIN|    81           0.00391       -0.31250       -0.18750       -0.43750
 BRILLOUIN|    82           0.00391       -0.31250       -0.18750       -0.31250
 BRILLOUIN|    83           0.00391       -0.31250       -0.18750       -0.18750
 BRILLOUIN|    84           0.00391       -0.31250       -0.18750       -0.06250
 BRILLOUIN|    85           0.00391       -0.31250       -0.18750        0.06250
 BRILLOUIN|    86           0.00391       -0.31250       -0.18750        0.18750
 BRILLOUIN|    87           0.00391       -0.31250       -0.18750        0.31250
 BRILLOUIN|    88           0.00391       -0.31250       -0.18750        0.43750
 BRILLOUIN|    89           0.00391       -0.31250       -0.06250       -0.43750
 BRILLOUIN|    90           0.00391       -0.31250       -0.06250       -0.31250
 BRILLOUIN|    91           0.00391       -0.31250       -0.06250       -0.18750
 BRILLOUIN|    92           0.00391       -0.31250       -0.06250       -0.06250
 BRILLOUIN|    93           0.00391       -0.31250       -0.06250        0.06250
 BRILLOUIN|    94           0.00391       -0.31250       -0.06250        0.18750
 BRILLOUIN|    95           0.00391       -0.31250       -0.06250        0.31250
 BRILLOUIN|    96           0.00391       -0.31250       -0.06250        0.43750
 BRILLOUIN|    97           0.00391       -0.31250        0.06250       -0.43750
 BRILLOUIN|    98           0.00391       -0.31250        0.06250       -0.31250
 BRILLOUIN|    99           0.00391       -0.31250        0.06250       -0.18750
 BRILLOUIN|   100           0.00391       -0.31250        0.06250       -0.06250
 BRILLOUIN|   101           0.00391       -0.31250        0.06250        0.06250
 BRILLOUIN|   102           0.00391       -0.31250        0.06250        0.18750
 BRILLOUIN|   103           0.00391       -0.31250        0.06250        0.31250
 BRILLOUIN|   104           0.00391       -0.31250        0.06250        0.43750
 BRILLOUIN|   105           0.00391       -0.31250        0.18750       -0.43750
 BRILLOUIN|   106           0.00391       -0.31250        0.18750       -0.31250
 BRILLOUIN|   107           0.00391       -0.31250        0.18750       -0.18750
 BRILLOUIN|   108           0.00391       -0.31250        0.18750       -0.06250
 BRILLOUIN|   109           0.00391       -0.31250        0.18750        0.06250
 BRILLOUIN|   110           0.00391       -0.31250        0.18750        0.18750
 BRILLOUIN|   111           0.00391       -0.31250        0.18750        0.31250
 BRILLOUIN|   112           0.00391       -0.31250        0.18750        0.43750
 BRILLOUIN|   113           0.00391       -0.31250        0.31250       -0.43750
 BRILLOUIN|   114           0.00391       -0.31250        0.31250       -0.31250
 BRILLOUIN|   115           0.00391       -0.31250        0.31250       -0.18750
 BRILLOUIN|   116           0.00391       -0.31250        0.31250       -0.06250
 BRILLOUIN|   117           0.00391       -0.31250        0.31250        0.06250
 BRILLOUIN|   118           0.00391       -0.31250        0.31250        0.18750
 BRILLOUIN|   119           0.00391       -0.31250        0.31250        0.31250
 BRILLOUIN|   120           0.00391       -0.31250        0.31250        0.43750
 BRILLOUIN|   121           0.00391       -0.31250        0.43750       -0.43750
 BRILLOUIN|   122           0.00391       -0.31250        0.43750       -0.31250
 BRILLOUIN|   123           0.00391       -0.31250        0.43750       -0.18750
 BRILLOUIN|   124           0.00391       -0.31250        0.43750       -0.06250
 BRILLOUIN|   125           0.00391       -0.31250        0.43750        0.06250
 BRILLOUIN|   126           0.00391       -0.31250        0.43750        0.18750
 BRILLOUIN|   127           0.00391       -0.31250        0.43750        0.31250
 BRILLOUIN|   128           0.00391       -0.31250        0.43750        0.43750
 BRILLOUIN|   129           0.00391       -0.18750       -0.43750       -0.43750
 BRILLOUIN|   130           0.00391       -0.18750       -0.43750       -0.31250
 BRILLOUIN|   131           0.00391       -0.18750       -0.43750       -0.18750
 BRILLOUIN|   132           0.00391       -0.18750       -0.43750       -0.06250
 BRILLOUIN|   133           0.00391       -0.18750       -0.43750        0.06250
 BRILLOUIN|   134           0.00391       -0.18750       -0.43750        0.18750
 BRILLOUIN|   135           0.00391       -0.18750       -0.43750        0.31250
 BRILLOUIN|   136           0.00391       -0.18750       -0.43750        0.43750
 BRILLOUIN|   137           0.00391       -0.18750       -0.31250       -0.43750
 BRILLOUIN|   138           0.00391       -0.18750       -0.31250       -0.31250
 BRILLOUIN|   139           0.00391       -0.18750       -0.31250       -0.18750
 BRILLOUIN|   140           0.00391       -0.18750       -0.31250       -0.06250
 BRILLOUIN|   141           0.00391       -0.18750       -0.31250        0.06250
 BRILLOUIN|   142           0.00391       -0.18750       -0.31250        0.18750
 BRILLOUIN|   143           0.00391       -0.18750       -0.31250        0.31250
 BRILLOUIN|   144           0.00391       -0.18750       -0.31250        0.43750
 BRILLOUIN|   145           0.00391       -0.18750       -0.18750       -0.43750
 BRILLOUIN|   146           0.00391       -0.18750       -0.18750       -0.31250
 BRILLOUIN|   147           0.00391       -0.18750       -0.18750       -0.18750
 BRILLOUIN|   148           0.00391       -0.18750       -0.18750       -0.06250
 BRILLOUIN|   149           0.00391       -0.18750       -0.18750        0.06250
 BRILLOUIN|   150           0.00391       -0.18750       -0.18750        0.18750
 BRILLOUIN|   151           0.00391       -0.18750       -0.18750        0.31250
 BRILLOUIN|   152           0.00391       -0.18750       -0.18750        0.43750
 BRILLOUIN|   153           0.00391       -0.18750       -0.06250       -0.43750
 BRILLOUIN|   154           0.00391       -0.18750       -0.06250       -0.31250
 BRILLOUIN|   155           0.00391       -0.18750       -0.06250       -0.18750
 BRILLOUIN|   156           0.00391       -0.18750       -0.06250       -0.06250
 BRILLOUIN|   157           0.00391       -0.18750       -0.06250        0.06250
 BRILLOUIN|   158           0.00391       -0.18750       -0.06250        0.18750
 BRILLOUIN|   159           0.00391       -0.18750       -0.06250        0.31250
 BRILLOUIN|   160           0.00391       -0.18750       -0.06250        0.43750
 BRILLOUIN|   161           0.00391       -0.18750        0.06250       -0.43750
 BRILLOUIN|   162           0.00391       -0.18750        0.06250       -0.31250
 BRILLOUIN|   163           0.00391       -0.18750        0.06250       -0.18750
 BRILLOUIN|   164           0.00391       -0.18750        0.06250       -0.06250
 BRILLOUIN|   165           0.00391       -0.18750        0.06250        0.06250
 BRILLOUIN|   166           0.00391       -0.18750        0.06250        0.18750
 BRILLOUIN|   167           0.00391       -0.18750        0.06250        0.31250
 BRILLOUIN|   168           0.00391       -0.18750        0.06250        0.43750
 BRILLOUIN|   169           0.00391       -0.18750        0.18750       -0.43750
 BRILLOUIN|   170           0.00391       -0.18750        0.18750       -0.31250
 BRILLOUIN|   171           0.00391       -0.18750        0.18750       -0.18750
 BRILLOUIN|   172           0.00391       -0.18750        0.18750       -0.06250
 BRILLOUIN|   173           0.00391       -0.18750        0.18750        0.06250
 BRILLOUIN|   174           0.00391       -0.18750        0.18750        0.18750
 BRILLOUIN|   175           0.00391       -0.18750        0.18750        0.31250
 BRILLOUIN|   176           0.00391       -0.18750        0.18750        0.43750
 BRILLOUIN|   177           0.00391       -0.18750        0.31250       -0.43750
 BRILLOUIN|   178           0.00391       -0.18750        0.31250       -0.31250
 BRILLOUIN|   179           0.00391       -0.18750        0.31250       -0.18750
 BRILLOUIN|   180           0.00391       -0.18750        0.31250       -0.06250
 BRILLOUIN|   181           0.00391       -0.18750        0.31250        0.06250
 BRILLOUIN|   182           0.00391       -0.18750        0.31250        0.18750
 BRILLOUIN|   183           0.00391       -0.18750        0.31250        0.31250
 BRILLOUIN|   184           0.00391       -0.18750        0.31250        0.43750
 BRILLOUIN|   185           0.00391       -0.18750        0.43750       -0.43750
 BRILLOUIN|   186           0.00391       -0.18750        0.43750       -0.31250
 BRILLOUIN|   187           0.00391       -0.18750        0.43750       -0.18750
 BRILLOUIN|   188           0.00391       -0.18750        0.43750       -0.06250
 BRILLOUIN|   189           0.00391       -0.18750        0.43750        0.06250
 BRILLOUIN|   190           0.00391       -0.18750        0.43750        0.18750
 BRILLOUIN|   191           0.00391       -0.18750        0.43750        0.31250
 BRILLOUIN|   192           0.00391       -0.18750        0.43750        0.43750
 BRILLOUIN|   193           0.00391       -0.06250       -0.43750       -0.43750
 BRILLOUIN|   194           0.00391       -0.06250       -0.43750       -0.31250
 BRILLOUIN|   195           0.00391       -0.06250       -0.43750       -0.18750
 BRILLOUIN|   196           0.00391       -0.06250       -0.43750       -0.06250
 BRILLOUIN|   197           0.00391       -0.06250       -0.43750        0.06250
 BRILLOUIN|   198           0.00391       -0.06250       -0.43750        0.18750
 BRILLOUIN|   199           0.00391       -0.06250       -0.43750        0.31250
 BRILLOUIN|   200           0.00391       -0.06250       -0.43750        0.43750
 BRILLOUIN|   201           0.00391       -0.06250       -0.31250       -0.43750
 BRILLOUIN|   202           0.00391       -0.06250       -0.31250       -0.31250
 BRILLOUIN|   203           0.00391       -0.06250       -0.31250       -0.18750
 BRILLOUIN|   204           0.00391       -0.06250       -0.31250       -0.06250
 BRILLOUIN|   205           0.00391       -0.06250       -0.31250        0.06250
 BRILLOUIN|   206           0.00391       -0.06250       -0.31250        0.18750
 BRILLOUIN|   207           0.00391       -0.06250       -0.31250        0.31250
 BRILLOUIN|   208           0.00391       -0.06250       -0.31250        0.43750
 BRILLOUIN|   209           0.00391       -0.06250       -0.18750       -0.43750
 BRILLOUIN|   210           0.00391       -0.06250       -0.18750       -0.31250
 BRILLOUIN|   211           0.00391       -0.06250       -0.18750       -0.18750
 BRILLOUIN|   212           0.00391       -0.06250       -0.18750       -0.06250
 BRILLOUIN|   213           0.00391       -0.06250       -0.18750        0.06250
 BRILLOUIN|   214           0.00391       -0.06250       -0.18750        0.18750
 BRILLOUIN|   215           0.00391       -0.06250       -0.18750        0.31250
 BRILLOUIN|   216           0.00391       -0.06250       -0.18750        0.43750
 BRILLOUIN|   217           0.00391       -0.06250       -0.06250       -0.43750
 BRILLOUIN|   218           0.00391       -0.06250       -0.06250       -0.31250
 BRILLOUIN|   219           0.00391       -0.06250       -0.06250       -0.18750
 BRILLOUIN|   220           0.00391       -0.06250       -0.06250       -0.06250
 BRILLOUIN|   221           0.00391       -0.06250       -0.06250        0.06250
 BRILLOUIN|   222           0.00391       -0.06250       -0.06250        0.18750
 BRILLOUIN|   223           0.00391       -0.06250       -0.06250        0.31250
 BRILLOUIN|   224           0.00391       -0.06250       -0.06250        0.43750
 BRILLOUIN|   225           0.00391       -0.06250        0.06250       -0.43750
 BRILLOUIN|   226           0.00391       -0.06250        0.06250       -0.31250
 BRILLOUIN|   227           0.00391       -0.06250        0.06250       -0.18750
 BRILLOUIN|   228           0.00391       -0.06250        0.06250       -0.06250
 BRILLOUIN|   229           0.00391       -0.06250        0.06250        0.06250
 BRILLOUIN|   230           0.00391       -0.06250        0.06250        0.18750
 BRILLOUIN|   231           0.00391       -0.06250        0.06250        0.31250
 BRILLOUIN|   232           0.00391       -0.06250        0.06250        0.43750
 BRILLOUIN|   233           0.00391       -0.06250        0.18750       -0.43750
 BRILLOUIN|   234           0.00391       -0.06250        0.18750       -0.31250
 BRILLOUIN|   235           0.00391       -0.06250        0.18750       -0.18750
 BRILLOUIN|   236           0.00391       -0.06250        0.18750       -0.06250
 BRILLOUIN|   237           0.00391       -0.06250        0.18750        0.06250
 BRILLOUIN|   238           0.00391       -0.06250        0.18750        0.18750
 BRILLOUIN|   239           0.00391       -0.06250        0.18750        0.31250
 BRILLOUIN|   240           0.00391       -0.06250        0.18750        0.43750
 BRILLOUIN|   241           0.00391       -0.06250        0.31250       -0.43750
 BRILLOUIN|   242           0.00391       -0.06250        0.31250       -0.31250
 BRILLOUIN|   243           0.00391       -0.06250        0.31250       -0.18750
 BRILLOUIN|   244           0.00391       -0.06250        0.31250       -0.06250
 BRILLOUIN|   245           0.00391       -0.06250        0.31250        0.06250
 BRILLOUIN|   246           0.00391       -0.06250        0.31250        0.18750
 BRILLOUIN|   247           0.00391       -0.06250        0.31250        0.31250
 BRILLOUIN|   248           0.00391       -0.06250        0.31250        0.43750
 BRILLOUIN|   249           0.00391       -0.06250        0.43750       -0.43750
 BRILLOUIN|   250           0.00391       -0.06250        0.43750       -0.31250
 BRILLOUIN|   251           0.00391       -0.06250        0.43750       -0.18750
 BRILLOUIN|   252           0.00391       -0.06250        0.43750       -0.06250
 BRILLOUIN|   253           0.00391       -0.06250        0.43750        0.06250
 BRILLOUIN|   254           0.00391       -0.06250        0.43750        0.18750
 BRILLOUIN|   255           0.00391       -0.06250        0.43750        0.31250
 BRILLOUIN|   256           0.00391       -0.06250        0.43750        0.43750
 *******************************************************************************

 *******************************************************************************
 *******************************************************************************
 **                                                                           **
 **     #####                         ##              ##                      **
 **    ##   ##            ##          ##              ##                      **
 **   ##     ##                       ##            ######                    **
 **   ##     ##  ##   ##  ##   #####  ##  ##   ####   ##    #####    #####    **
 **   ##     ##  ##   ##  ##  ##      ## ##   ##      ##   ##   ##  ##   ##   **
 **   ##  ## ##  ##   ##  ##  ##      ####     ###    ##   ######   ######    **
 **    ##  ###   ##   ##  ##  ##      ## ##      ##   ##   ##       ##        **
 **     #######   #####   ##   #####  ##  ##  ####    ##    #####   ##        **
 **           ##                                                    ##        **
 **                                                                           **
 **                                                ... make the atoms dance   **
 **                                                                           **
 **            Copyright (C) by CP2K developers group (2000-2025)             **
 **                      J. Chem. Phys. 152, 194103 (2020)                    **
 **                                                                           **
 *******************************************************************************

 DFT| Spin restricted Kohn-Sham (RKS) calculation                            RKS
 DFT| Multiplicity                                                             1
 DFT| Number of spin states                                                    1
 DFT| Charge                                                                   0
 DFT| Self-interaction correction (SIC)                                       NO
 DFT| Cutoffs: density                                              1.000000E-10
 DFT|          gradient                                             1.000000E-10
 DFT|          tau                                                  1.000000E-10
 DFT|          cutoff_smoothing_range                               0.000000E+00
 DFT| XC density smoothing                                                  NONE
 DFT| XC derivatives                                                          PW

 FUNCTIONAL| PBE:
 FUNCTIONAL| J.P.Perdew, K.Burke, M.Ernzerhof, Phys. Rev. Letter, vol. 77, n 18,
 FUNCTIONAL|  pp. 3865-3868, (1996) {spin unpolarized}                          


 QS| Method:                                                                 GPW
 QS| Density plane wave grid type                        NON-SPHERICAL FULLSPACE
 QS| Number of grid levels:                                                    4
 QS| Density cutoff [a.u.]:                                                500.0
 QS| Multi grid cutoff [a.u.]: 1) grid level                               500.0
 QS|                           2) grid level                               166.7
 QS|                           3) grid level                                55.6
 QS|                           4) grid level                                18.5
 QS| Grid level progression factor:                                          3.0
 QS| Relative density cutoff [a.u.]:                                        50.0
 QS| Interaction thresholds: eps_pgf_orb:                                1.0E-16
 QS|                         eps_filter_matrix:                          0.0E+00
 QS|                         eps_core_charge:                            1.0E-18
 QS|                         eps_rho_gspace:                             1.0E-16
 QS|                         eps_rho_rspace:                             1.0E-16
 QS|                         eps_gvg_rspace:                             1.0E-08
 QS|                         eps_ppl:                                    1.0E-02
 QS|                         eps_ppnl:                                   1.0E-10


 ATOMIC KIND INFORMATION

  1. Atomic kind: Ar                                    Number of atoms:       4

     Orbital Basis Set                                aug-DZVP-MOLOPT-GTH-tier-1

       Number of orbital shell sets:                                           1
       Number of orbital shells:                                               8
       Number of primitive Cartesian functions:                                6
       Number of Cartesian basis functions:                                   24
       Number of spherical basis functions:                                   22
       Norm type:                                                              2

       Normalised Cartesian orbitals:

                        Set   Shell   Orbital            Exponent    Coefficient

                          1       1    2s                0.128036      -0.022641
                                                         0.200000       0.000000
                                                         0.366457      -0.250173
                                                         0.925306      -0.239829
                                                         2.888051       0.771122
                                                         3.936450      -0.252618

                          1       2    3s                0.128036      -0.286353
                                                         0.200000       0.000000
                                                         0.366457       0.617940
                                                         0.925306      -0.155053
                                                         2.888051       0.048276
                                                         3.936450      -0.241656

                          1       3    4s                0.128036      -0.955128
                                                         0.200000       2.017253
                                                         0.366457      -1.673869
                                                         0.925306       0.594110
                                                         2.888051       0.000000
                                                         3.936450       0.000000

                          1       4    3px               0.128036      -0.027094
                                                         0.200000       0.000000
                                                         0.366457      -0.206116
                                                         0.925306      -0.493770
                                                         2.888051      -0.270927
                                                         3.936450       0.640768
                          1       4    3py               0.128036      -0.027094
                                                         0.200000       0.000000
                                                         0.366457      -0.206116
                                                         0.925306      -0.493770
                                                         2.888051      -0.270927
                                                         3.936450       0.640768
                          1       4    3pz               0.128036      -0.027094
                                                         0.200000       0.000000
                                                         0.366457      -0.206116
                                                         0.925306      -0.493770
                                                         2.888051      -0.270927
                                                         3.936450       0.640768

                          1       5    4px               0.128036       0.150878
                                                         0.200000       0.000000
                                                         0.366457      -0.391589
                                                         0.925306      -0.095771
                                                         2.888051      -0.821229
                                                         3.936450       0.909412
                          1       5    4py               0.128036       0.150878
                                                         0.200000       0.000000
                                                         0.366457      -0.391589
                                                         0.925306      -0.095771
                                                         2.888051      -0.821229
                                                         3.936450       0.909412
                          1       5    4pz               0.128036       0.150878
                                                         0.200000       0.000000
                                                         0.366457      -0.391589
                                                         0.925306      -0.095771
                                                         2.888051      -0.821229
                                                         3.936450       0.909412

                          1       6    5px               0.128036      -0.445435
                                                         0.200000       1.328162
                                                         0.366457      -1.610536
                                                         0.925306       0.280049
                                                         2.888051       0.000000
                                                         3.936450       0.000000
                          1       6    5py               0.128036      -0.445435
                                                         0.200000       1.328162
                                                         0.366457      -1.610536
                                                         0.925306       0.280049
                                                         2.888051       0.000000
                                                         3.936450       0.000000
                          1       6    5pz               0.128036      -0.445435
                                                         0.200000       1.328162
                                                         0.366457      -1.610536
                                                         0.925306       0.280049
                                                         2.888051       0.000000
                                                         3.936450       0.000000

                          1       7    4dx2              0.128036       0.055553
                                                         0.200000       0.000000
                                                         0.366457      -0.249229
                                                         0.925306      -0.094604
                                                         2.888051      -1.508715
                                                         3.936450       1.944593
                          1       7    4dxy              0.128036       0.096220
                                                         0.200000       0.000000
                                                         0.366457      -0.431677
                                                         0.925306      -0.163859
                                                         2.888051      -2.613171
                                                         3.936450       3.368134
                          1       7    4dxz              0.128036       0.096220
                                                         0.200000       0.000000
                                                         0.366457      -0.431677
                                                         0.925306      -0.163859
                                                         2.888051      -2.613171
                                                         3.936450       3.368134
                          1       7    4dy2              0.128036       0.055553
                                                         0.200000       0.000000
                                                         0.366457      -0.249229
                                                         0.925306      -0.094604
                                                         2.888051      -1.508715
                                                         3.936450       1.944593
                          1       7    4dyz              0.128036       0.096220
                                                         0.200000       0.000000
                                                         0.366457      -0.431677
                                                         0.925306      -0.163859
                                                         2.888051      -2.613171
                                                         3.936450       3.368134
                          1       7    4dz2              0.128036       0.055553
                                                         0.200000       0.000000
                                                         0.366457      -0.249229
                                                         0.925306      -0.094604
                                                         2.888051      -1.508715
                                                         3.936450       1.944593

                          1       8    5dx2              0.128036      -0.004985
                                                         0.200000       0.195366
                                                         0.366457      -0.371974
                                                         0.925306       0.035982
                                                         2.888051       0.000000
                                                         3.936450       0.000000
                          1       8    5dxy              0.128036      -0.008634
                                                         0.200000       0.338383
                                                         0.366457      -0.644278
                                                         0.925306       0.062323
                                                         2.888051       0.000000
                                                         3.936450       0.000000
                          1       8    5dxz              0.128036      -0.008634
                                                         0.200000       0.338383
                                                         0.366457      -0.644278
                                                         0.925306       0.062323
                                                         2.888051       0.000000
                                                         3.936450       0.000000
                          1       8    5dy2              0.128036      -0.004985
                                                         0.200000       0.195366
                                                         0.366457      -0.371974
                                                         0.925306       0.035982
                                                         2.888051       0.000000
                                                         3.936450       0.000000
                          1       8    5dyz              0.128036      -0.008634
                                                         0.200000       0.338383
                                                         0.366457      -0.644278
                                                         0.925306       0.062323
                                                         2.888051       0.000000
                                                         3.936450       0.000000
                          1       8    5dz2              0.128036      -0.004985
                                                         0.200000       0.195366
                                                         0.366457      -0.371974
                                                         0.925306       0.035982
                                                         2.888051       0.000000
                                                         3.936450       0.000000

       Atomic covalent radius [Angstrom]:                                  0.980

       Atomic van der Waals radius [Angstrom]:                             1.880

     GTH Potential information for                                       GTH-PBE

       Description:                       Goedecker-Teter-Hutter pseudopotential
                                           Goedecker et al., PRB 54, 1703 (1996)
                                          Hartwigsen et al., PRB 58, 3641 (1998)
                                                      Krack, TCA 114, 145 (2005)

       Gaussian exponent of the core charge distribution:               3.125000
       Electronic configuration (s p d ...):                               2   6

       Parameters of the local part of the GTH pseudopotential:

                          rloc        C1          C2          C3          C4
                        0.400000   -7.100000

       Parameters of the non-local part of the GTH (SOC) pseudopotential:

                   l      r(l)      h(i,j,l)
                                    k(i,j,l)
                   0    0.318815   17.252038   -5.585488
                                   -5.585488    7.210834
                   1    0.353370    4.974216    0.000000
                                    0.000000    0.000000
                                    0.057096   -0.039278
                                   -0.039278    0.046474


 MOLECULE KIND INFORMATION


 All atoms are their own molecule, skipping detailed information


 TOTAL NUMBERS AND MAXIMUM NUMBERS

  Total number of            - Atomic kinds:                                   1
                             - Atoms:                                          4
                             - Shell sets:                                     4
                             - Shells:                                        32
                             - Primitive Cartesian functions:                 24
                             - Cartesian basis functions:                     96
                             - Spherical basis functions:                     88

  Maximum angular momentum of- Orbital basis functions:                        2
                             - Local part of the GTH pseudopotential:          0
                             - Non-local part of the GTH pseudopotential:      3


 MODULE QUICKSTEP: ATOMIC COORDINATES IN ANGSTROM

   Atom Kind Element         X             Y             Z       Z(eff)     Mass
      1    1 Ar   18      0.000000      0.000000      0.000000   8.0000  39.9480
      2    1 Ar   18      0.000000      2.975295      2.975295   8.0000  39.9480
      3    1 Ar   18      2.975295      0.000000      2.975295   8.0000  39.9480
      4    1 Ar   18      2.975295      2.975295      0.000000   8.0000  39.9480



 SCF PARAMETERS         Density guess:                                    ATOMIC
                        --------------------------------------------------------
                        max_scf:                                             500
                        max_scf_history:                                       0
                        max_diis:                                              4
                        --------------------------------------------------------
                        eps_scf:                                        1.00E-09
                        eps_scf_history:                                0.00E+00
                        eps_diis:                                       1.00E-01
                        eps_eigval:                                     1.00E-05
                        --------------------------------------------------------
                        level_shift [a.u.]:                             0.000000
                        added MOs                                        72    0
                        --------------------------------------------------------
                        Mixing method:                            BROYDEN_MIXING
                                                charge density mixing in g-space
                        --------------------------------------------------------
                        No outer SCF

 PW_GRID| Information for grid number                                          1
 PW_GRID| Grid distributed over                                     8 processors
 PW_GRID| Real space group dimensions                                     8    1
 PW_GRID| the grid is blocked:                                                NO
 PW_GRID| Cutoff [a.u.]                                                    500.0
 PW_GRID| spherical cutoff:                                                   NO
 PW_GRID|   Bounds   1            -60      59                Points:         120
 PW_GRID|   Bounds   2            -60      59                Points:         120
 PW_GRID|   Bounds   3            -60      59                Points:         120
 PW_GRID| Volume element (a.u.^3)  0.8229E-03     Volume (a.u.^3)      1421.9250
 PW_GRID| Grid span                                                    FULLSPACE
 PW_GRID|   Distribution                         Average         Max         Min
 PW_GRID|   G-Vectors                           216000.0      216000      216000
 PW_GRID|   G-Rays                                1800.0        1800        1800
 PW_GRID|   Real Space Points                   216000.0      216000      216000

 PW_GRID| Information for grid number                                          2
 PW_GRID| Number of the reference grid                                         1
 PW_GRID| Grid distributed over                                     8 processors
 PW_GRID| Real space group dimensions                                     8    1
 PW_GRID| the grid is blocked:                                                NO
 PW_GRID| Cutoff [a.u.]                                                    166.7
 PW_GRID| spherical cutoff:                                                   NO
 PW_GRID|   Bounds   1            -36      35                Points:          72
 PW_GRID|   Bounds   2            -36      35                Points:          72
 PW_GRID|   Bounds   3            -36      35                Points:          72
 PW_GRID| Volume element (a.u.^3)  0.3810E-02     Volume (a.u.^3)      1421.9250
 PW_GRID| Grid span                                                    FULLSPACE
 PW_GRID|   Distribution                         Average         Max         Min
 PW_GRID|   G-Vectors                            46656.0       46872       46512
 PW_GRID|   G-Rays                                 648.0         651         646
 PW_GRID|   Real Space Points                    46656.0       46656       46656

 PW_GRID| Information for grid number                                          3
 PW_GRID| Number of the reference grid                                         1
 PW_GRID| Grid distributed over                                     8 processors
 PW_GRID| Real space group dimensions                                     8    1
 PW_GRID| the grid is blocked:                                                NO
 PW_GRID| Cutoff [a.u.]                                                     55.6
 PW_GRID| spherical cutoff:                                                   NO
 PW_GRID|   Bounds   1            -20      19                Points:          40
 PW_GRID|   Bounds   2            -20      19                Points:          40
 PW_GRID|   Bounds   3            -20      19                Points:          40
 PW_GRID| Volume element (a.u.^3)  0.2222E-01     Volume (a.u.^3)      1421.9250
 PW_GRID| Grid span                                                    FULLSPACE
 PW_GRID|   Distribution                         Average         Max         Min
 PW_GRID|   G-Vectors                             8000.0        8120        7920
 PW_GRID|   G-Rays                                 200.0         203         198
 PW_GRID|   Real Space Points                     8000.0        8000        8000

 PW_GRID| Information for grid number                                          4
 PW_GRID| Number of the reference grid                                         1
 PW_GRID| Grid distributed over                                     8 processors
 PW_GRID| Real space group dimensions                                     8    1
 PW_GRID| the grid is blocked:                                                NO
 PW_GRID| Cutoff [a.u.]                                                     18.5
 PW_GRID| spherical cutoff:                                                   NO
 PW_GRID|   Bounds   1            -12      11                Points:          24
 PW_GRID|   Bounds   2            -12      11                Points:          24
 PW_GRID|   Bounds   3            -12      11                Points:          24
 PW_GRID| Volume element (a.u.^3)  0.1029         Volume (a.u.^3)      1421.9250
 PW_GRID| Grid span                                                    FULLSPACE
 PW_GRID|   Distribution                         Average         Max         Min
 PW_GRID|   G-Vectors                             1728.0        1800        1680
 PW_GRID|   G-Rays                                  72.0          75          70
 PW_GRID|   Real Space Points                     1728.0        1728        1728

 POISSON| Solver                                                        PERIODIC
 POISSON| Periodicity                                                        XYZ

 RS_GRID| Information for grid number                                          1
 RS_GRID|   Bounds   1            -60      59                Points:         120
 RS_GRID|   Bounds   2            -60      59                Points:         120
 RS_GRID|   Bounds   3            -60      59                Points:         120
 RS_GRID| Real space fully replicated
 RS_GRID| Group size                                                           1

 RS_GRID| Information for grid number                                          2
 RS_GRID|   Bounds   1            -36      35                Points:          72
 RS_GRID|   Bounds   2            -36      35                Points:          72
 RS_GRID|   Bounds   3            -36      35                Points:          72
 RS_GRID| Real space fully replicated
 RS_GRID| Group size                                                           1

 RS_GRID| Information for grid number                                          3
 RS_GRID|   Bounds   1            -20      19                Points:          40
 RS_GRID|   Bounds   2            -20      19                Points:          40
 RS_GRID|   Bounds   3            -20      19                Points:          40
 RS_GRID| Real space fully replicated
 RS_GRID| Group size                                                           1

 RS_GRID| Information for grid number                                          4
 RS_GRID|   Bounds   1            -12      11                Points:          24
 RS_GRID|   Bounds   2            -12      11                Points:          24
 RS_GRID|   Bounds   3            -12      11                Points:          24
 RS_GRID| Real space fully replicated
 RS_GRID| Group size                                                           1

 Number of electrons:                                                         32
 Number of occupied orbitals:                                                 16
 Number of molecular orbitals:                                                88

 Number of orbital functions:                                                 88
 Number of independent orbital functions:                                     88

 Extrapolation method: initial_guess

 Atomic guess: The first density matrix is obtained in terms of atomic orbitals
               and electronic configurations assigned to each atomic kind

 Guess for atomic kind: Ar

 Electronic structure
    Total number of core electrons                                         10.00
    Total number of valence electrons                                       8.00
    Total number of electrons                                              18.00
    Multiplicity                                                   not specified
    S   [  2.00  2.00] 2.00
    P   [  6.00] 6.00


 *******************************************************************************
                  Iteration          Convergence                     Energy [au]
 *******************************************************************************
                          1        0.117510                     -20.933067007058
                          2        0.767009E-01                 -20.934619420839
                          3        0.172339E-02                 -20.935701358138
                          4        0.402962E-06                 -20.935701932340

 Energy components [Hartree]           Total Energy ::          -20.935701932340
                                        Band Energy ::           -3.941841831868
                                     Kinetic Energy ::            7.865749050816
                                   Potential Energy ::          -28.801450983156
                                      Virial (-V/T) ::            3.661628510786
                                        Core Energy ::          -35.473203523837
                                          XC Energy ::           -3.555160225760
                                     Coulomb Energy ::           18.092661817257
                       Total Pseudopotential Energy ::          -43.387864572975
                       Local Pseudopotential Energy ::          -47.815977978077
                    Nonlocal Pseudopotential Energy ::            4.428113405101
                                        Confinement ::            0.489119983219

 Orbital energies  State     L     Occupation   Energy[a.u.]          Energy[eV]

                       1     0          2.000      -0.877492          -23.877769

                       1     1          6.000      -0.364476           -9.917905


 Total Electron Density at R=0:                                         0.000068
 Re-scaling the density matrix to get the right number of electrons
                  # Electrons              Trace(P)               Scaling factor
                           32                32.000                        1.000


 SCF WAVEFUNCTION OPTIMIZATION

  Step     Update method      Time    Convergence         Total energy    Change
  ------------------------------------------------------------------------------
     1 NoMix/Diag. 0.50E-01    1.6     0.01664432       -84.3036652249 -8.43E+01
     2 Broy./Diag. 0.50E-01    1.7     0.00008334       -84.1731492025  1.31E-01
     3 Broy./Diag. 0.50E-01    1.7     0.00212470       -84.2497782262 -7.66E-02
     4 Broy./Diag. 0.50E-01    1.7     0.00000580       -84.2943899315 -4.46E-02
     5 Broy./Diag. 0.50E-01    1.7     0.00006683       -84.3011729315 -6.78E-03
     6 Broy./Diag. 0.50E-01    1.7     0.00000064       -84.3026782853 -1.51E-03
     7 Broy./Diag. 0.50E-01    1.7     0.00001573       -84.3019898171  6.88E-04
     8 Broy./Diag. 0.50E-01    1.7     0.00000028       -84.3024152894 -4.25E-04
     9 Broy./Diag. 0.50E-01    1.7     0.00000296       -84.3024498540 -3.46E-05
    10 Broy./Diag. 0.50E-01    1.7     0.00000006       -84.3024903637 -4.05E-05
    11 Broy./Diag. 0.50E-01    1.7     0.00000090       -84.3025298533 -3.95E-05
    12 Broy./Diag. 0.50E-01    1.7     0.00000003       -84.3025387626 -8.91E-06
    13 Broy./Diag. 0.50E-01    1.7     0.00000013       -84.3025331452  5.62E-06
    14 Broy./Diag. 0.50E-01    1.7     0.00000005       -84.3025301883  2.96E-06
    15 Broy./Diag. 0.50E-01    1.7     0.00000004       -84.3025286690  1.52E-06
    16 Broy./Diag. 0.50E-01    1.7     0.00000011       -84.3025250215  3.65E-06
    17 Broy./Diag. 0.50E-01    1.7     0.00000002       -84.3025240942  9.27E-07
    18 Broy./Diag. 0.50E-01    1.7     0.00000002       -84.3025259410 -1.85E-06
    19 Broy./Diag. 0.50E-01    1.7     4.2960E-09       -84.3025262961 -3.55E-07
    20 Broy./Diag. 0.50E-01    1.7     6.5629E-09       -84.3025260882  2.08E-07
    21 Broy./Diag. 0.50E-01    1.7     1.1641E-09       -84.3025260251  6.31E-08
    22 Broy./Diag. 0.50E-01    1.7     4.2547E-09       -84.3025263239 -2.99E-07
    23 Broy./Diag. 0.50E-01    1.7     4.9118E-10       -84.3025263027  2.12E-08

  *** SCF run converged in    23 steps ***


  Electronic density on regular grids:        -32.0000000000       -0.0000000000
  Core density on regular grids:               32.0000000000        0.0000000000
  Total charge density on r-space grids:       -0.0000000000
  Total charge density g-space grids:          -0.0000000000

  Overlap energy of the core charge distribution:               0.00000000000000
  Self energy of the core charge distribution:               -180.54066673528200
  Core Hamiltonian energy:                                     42.33741887816584
  Hartree energy:                                              68.49847960522774
  Exchange-correlation energy:                                -14.59775805080995

  Total energy:                                               -84.30252630269837

 !-----------------------------------------------------------------------------!
                     Mulliken Population Analysis

 #  Atom  Element  Kind  Atomic population                           Net charge
       1     Ar       1          8.000000                             -0.000000
       2     Ar       1          8.000000                             -0.000000
       3     Ar       1          8.000000                             -0.000000
       4     Ar       1          8.000000                             -0.000000
 # Total charge                             32.000000                 -0.000000

 !-----------------------------------------------------------------------------!

 !-----------------------------------------------------------------------------!
                           Hirshfeld Charges

  #Atom  Element  Kind  Ref Charge     Population                    Net charge
      1       Ar     1       8.000          8.000                        -0.000
      2       Ar     1       8.000          8.000                        -0.000
      3       Ar     1       8.000          8.000                        -0.000
      4       Ar     1       8.000          8.000                        -0.000

  Total Charge                                                           -0.000
 !-----------------------------------------------------------------------------!

 KPOINTS| Band Structure Calculation
 KPOINTS| Number of k-point sets                                               1
 KPOINTS| Number of added MOs/bands                                           -1
 KPOINTS| Number of k-points in set    1                                     148
 KPOINTS| In units of b-vector [2pi/Bohr]
 KPOINTS| Special point     1 not specifi     0.000000     0.000000     0.000000
 KPOINTS| Special point     2 not specifi     0.500000     0.000000     0.500000
 KPOINTS| Special point     3 not specifi     0.625000     0.250000     0.625000
 KPOINTS| Special point     4 not specifi     0.000000     0.000000     0.000000
 KPOINTS| Time for k-point line                                            0.896

 ENERGY| Total FORCE_EVAL ( QS ) energy [hartree]            -84.302526302698368

 -------------------------------------------------------------------------------
 -                                                                             -
 -                                DBCSR STATISTICS                             -
 -                                                                             -
 -------------------------------------------------------------------------------
 COUNTER                                    TOTAL       BLAS       SMM       ACC
 flops inhomo. stacks                           0       0.0%      0.0%      0.0%
 flops total                         0.000000E+00       0.0%      0.0%      0.0%
 flops max/rank                      0.000000E+00       0.0%      0.0%      0.0%
 matmuls inhomo. stacks                         0       0.0%      0.0%      0.0%
 matmuls total                                  0       0.0%      0.0%      0.0%
 number of processed stacks                     0       0.0%      0.0%      0.0%
 average stack size                                     0.0       0.0       0.0
 marketing flops                     0.000000E+00
 -------------------------------------------------------------------------------
 -                                                                             -
 -                      DBCSR MESSAGE PASSING PERFORMANCE                      -
 -                                                                             -
 -------------------------------------------------------------------------------
 ROUTINE             CALLS      AVE VOLUME [Bytes]
 MP_Bcast                1                     12.
 MP_Allreduce           19                     21.
 MP_Alltoall        498040                   3590.
 -------------------------------------------------------------------------------

 -------------------------------------------------------------------------------
 -                                                                             -
 -                                DBM STATISTICS                               -
 -                                                                             -
 -------------------------------------------------------------------------------
    M  x    N  x    K                                          COUNT     PERCENT
 -------------------------------------------------------------------------------

 -------------------------------------------------------------------------------
 -                                                                             -
 -                                GRID STATISTICS                              -
 -                                                                             -
 -------------------------------------------------------------------------------
 LP    KERNEL             BACKEND                              COUNT     PERCENT
 4     collocate ortho    CPU                                 123072      51.06%
 4     integrate ortho    CPU                                 117944      48.93%
 0     collocate general  CPU                                      8       0.00%
 0     integrate general  CPU                                      4       0.00%
 -------------------------------------------------------------------------------

 MEMORY| Estimated peak process memory [MiB]                                 544

 -------------------------------------------------------------------------------
 ----                             MULTIGRID INFO                            ----
 -------------------------------------------------------------------------------
 count for grid        1:          30008          cutoff [a.u.]          500.00
 count for grid        2:          24828          cutoff [a.u.]          166.67
 count for grid        3:          20624          cutoff [a.u.]           55.56
 count for grid        4:          10116          cutoff [a.u.]           18.52
 total gridlevel count  :          85576

 -------------------------------------------------------------------------------
 -                                                                             -
 -                         MESSAGE PASSING PERFORMANCE                         -
 -                                                                             -
 -------------------------------------------------------------------------------

 ROUTINE             CALLS      AVE VOLUME [Bytes]
 MP_Group                6
 MP_Bcast           215704                   1679.
 MP_Allreduce        15869                    299.
 MP_Sync                 4
 MP_Alltoall           419                9578255.
 MP_SendRecv           686                 568916.
 MP_ISendRecv          651                 557491.
 MP_Wait            148895
 MP_comm_split           4
 MP_ISend           157964                   1772.
 MP_IRecv           252032                   1113.
 -------------------------------------------------------------------------------


 -------------------------------------------------------------------------------
 -                                                                             -
 -                           R E F E R E N C E S                               -
 -                                                                             -
 -------------------------------------------------------------------------------
 
 CP2K version 2025.1 (Development Version), the CP2K developers group (2025).
 CP2K is freely available from https://www.cp2k.org/ .
 
 T. D. Kuehne, M. Iannuzzi, M. Del Ben, V. V. Rybkin, P. Seewald, F. Stein, T. 
 Laino, R. Z. Khaliullin, O. Schuett, F. Schiffmann, D. Golze, J. Wilhelm, S. 
 Chulkov, M. H. Bani-Hashemian, V. Weber, U. Borstnik, M. Taillefumier, A. S. 
 Jakobovits, A. Lazzaro, H. Pabst, T. Mueller, R. Schade, M. Guidon, S. 
 Andermatt, N. Holmberg, G. K. Schenter, A. Hehn, A. Bussy, F. Belleflamme, G. 
 Tabacchi, A. Gloess, M. Lass, I. Bethune, C. J. Mundy, C. Plessl, M. Watkins, 
 J. VandeVondele, M. Krack, J. Hutter.
 J. Chem. Phys. 152, 194103 (2020).
 CP2K: An electronic structure and molecular dynamics software package - 
 Quickstep: Efficient and accurate electronic structure calculations.
 https://doi.org/10.1063/5.0007045

 O. Schuett, P. Messmer, J. Hutter, J. VandeVondele.
 Electronic Structure Calculations on Graphics Processing Units, 173-190 (2016).
 GPU-Accelerated Sparse Matrix-Matrix Multiplication for Linear Scaling Density 
 Functional Theory.
 https://doi.org/10.1002/9781118670712.ch8

 J. Hutter, M. Iannuzzi, F. Schiffmann, J. VandeVondele.
 WIREs Comput Mol Sci. 4, 15-25 (2014).
 CP2K: atomistic simulations of condensed matter systems.
 https://doi.org/10.1002/wcms.1159

 U. Borstnik, J. VandeVondele, V. Weber, J. Hutter.
 Parallel Comput. 40, 47-58 (2014).
 Sparse matrix multiplication: The distributed block-compressed sparse row 
 library.
 https://doi.org/10.1016/j.parco.2014.03.012

 J. VandeVondele, J. Hutter.
 J. Chem. Phys. 127, 114105 (2007).
 Gaussian basis sets for accurate calculations on molecular systems in gas and 
 condensed phases.
 https://doi.org/10.1063/1.2770708

 J. VandeVondele, M. Krack, F. Mohamed, M. Parrinello, T. Chassaing, J. Hutter.
 Comput. Phys. Commun. 167, 103-128 (2005).
 QUICKSTEP: Fast and accurate density functional calculations using a mixed 
 Gaussian and plane waves approach.
 https://doi.org/10.1016/j.cpc.2004.12.014

 M. Krack.
 Theor. Chem. Acc. 114, 145-152 (2005).
 Pseudopotentials for H to Kr optimized for gradient-corrected 
 exchange-correlation functionals.
 https://doi.org/10.1007/s00214-005-0655-y

 M. Frigo, S. G. Johnson.
 Proc. IEEE 93, 216-231 (2005).
 The design and implementation of FFTW3.
 https://doi.org/10.1109/JPROC.2004.840301

 C. Hartwigsen, S. Goedecker, J. Hutter.
 Phys. Rev. B 58, 3641-3662 (1998).
 Relativistic separable dual-space Gaussian pseudopotentials from H to Rn.
 https://doi.org/10.1103/PhysRevB.58.3641

 G. Lippert, J. Hutter, M. Parrinello.
 Mol. Phys. 92, 477-487 (1997).
 A hybrid Gaussian and plane wave density functional scheme.
 https://doi.org/10.1080/002689797170220

 S. Goedecker, M. Teter, J. Hutter.
 Phys. Rev. B 54, 1703-1710 (1996).
 Separable dual-space Gaussian pseudopotentials.
 https://doi.org/10.1103/PhysRevB.54.1703

 J. P. Perdew, K. Burke, M. Ernzerhof.
 Phys. Rev. Lett. 77, 3865-3868 (1996).
 Generalized gradient approximation made simple.
 https://doi.org/10.1103/PhysRevLett.77.3865


 -------------------------------------------------------------------------------
 -                                                                             -
 -                                T I M I N G                                  -
 -                                                                             -
 -------------------------------------------------------------------------------
 SUBROUTINE                       CALLS  ASD         SELF TIME        TOTAL TIME
                                MAXIMUM       AVERAGE  MAXIMUM  AVERAGE  MAXIMUM
 CP2K                                 1  1.0    0.009    0.013   40.298   40.298
 qs_energies                          1  2.0    0.017    0.123   40.017   40.078
 scf_env_do_scf                       1  3.0    0.000    0.000   38.928   38.928
 scf_env_do_scf_inner_loop           23  4.0    0.005    0.006   38.928   38.928
 do_general_diag_kp                  24  5.9    0.136    0.144   34.892   35.065
 qs_scf_new_mos_kp                   23  5.0    0.000    0.000   34.132   34.299
 dbcsr_complete_redistribute      36350  8.3    1.308    1.380   12.011   12.555
 copy_dbcsr_to_fm                 24574  6.9    0.264    0.277   12.133   12.253
 dbcsr_desymmetrize_deep          48718  7.4    0.786    0.816    7.544    8.542
 kpoint_density_transform            23  7.0    0.045    0.048    8.332    8.336
 rskp_transform                   12072  6.9    4.086    6.450    4.086    6.450
 mp_alltoall_i22                  85068  8.8    4.893    6.354    4.893    6.354
 copy_fm_to_dbcsr                 11776  8.0    0.071    0.074    4.434    4.922
 cp_fm_start_copy_general         35920  7.3    0.697    0.925    4.008    4.061
 dbcsr_finalize                   88788  8.7    0.428    0.455    3.115    3.248
 transform_dmat                    5888  8.0    1.975    3.104    1.975    3.104
 mp_alltoall_d11v                255204  9.4    2.576    2.673    2.576    2.673
 qs_ks_update_qs_env                 23  5.0    0.000    0.000    2.268    2.508
 rebuild_ks_matrix                   23  6.0    0.000    0.000    2.127    2.366
 qs_ks_build_kohn_sham_matrix        23  7.0    0.010    0.011    2.127    2.366
 cp_cfm_geeig                       773  6.9    0.006    0.007    2.167    2.180
 mp_allgather_i                   71840  8.3    1.996    2.087    1.996    2.087
 mp_cart_sub                      49150  8.9    2.028    2.035    2.028    2.035
 dbcsr_merge_all                  36350 10.3    1.014    1.114    1.769    1.868
 cp_cfm_heevd                       773  7.9    0.001    0.001    1.660    1.673
 cp_cfm_heevd_base                  773  8.9    1.659    1.671    1.659    1.671
 hybrid_alltoall_any              48718  8.4    0.202    0.218    1.578    1.654
 mp_alltoall_i11v                157768  9.0    1.575    1.642    1.575    1.642
 qs_rho_update_rho_low               24  5.0    0.000    0.000    1.360    1.361
 calculate_rho_elec                  24  6.0    0.038    0.039    1.360    1.361
 fft_wrap_pw1pw2                    419 10.0    0.005    0.005    1.259    1.275
 sum_up_and_integrate                23  8.0    0.000    0.000    0.963    1.203
 integrate_v_rspace                  23  9.0    0.007    0.011    0.962    1.202
 fft_wrap_pw1pw2_500                278 11.3    0.099    0.101    1.167    1.184
 mp_cart_create                   24581  8.9    1.161    1.177    1.161    1.177
 fft3d_ps                           419 12.0    0.428    0.437    0.989    1.015
 mp_bcast_iv                     143704  8.3    0.852    0.982    0.852    0.982
 qs_vxc_create                       23  8.0    0.000    0.000    0.927    0.929
 xc_vxc_pw_create                    23  9.0    0.038    0.038    0.927    0.929
 dbcsr_work_create                85068  8.8    0.496    0.515    0.846    0.875
 gspace_mixing                       22  5.0    0.034    0.034    0.777    0.777
 density_rs2pw                       24  7.0    0.001    0.001    0.687    0.771
 grid_collocate_task_list            24  7.0    0.632    0.758    0.632    0.758
 grid_integrate_task_list            23 10.0    0.518    0.754    0.518    0.754
 dbcsr_create_new                132978  8.3    0.607    0.625    0.727    0.752
 broyden_mixing                      22  6.0    0.624    0.629    0.639    0.644
 dbcsr_work_destroy_all           85068  9.8    0.401    0.407    0.626    0.640
 tree_to_linear_d                 36350 11.3    0.590    0.612    0.590    0.612
 dbcsr_iterator_start            245521  9.0    0.497    0.502    0.584    0.598
 dbcsr_data_new                  911175  9.7    0.570    0.588    0.570    0.588
 xc_pw_derive                       138 11.0    0.001    0.001    0.582    0.587
 copy_dbcsr_to_fm_bc              24574  7.9    0.245    0.252    0.540    0.546
 copy_fm_to_dbcsr_bc              11776  9.0    0.156    0.159    0.529    0.543
 transfer_rs2pw                      98  8.0    0.001    0.001    0.450    0.538
 mp_alltoall_z22v                   419 14.0    0.490    0.516    0.490    0.516
 xc_rho_set_and_dset_create          23 10.0    0.027    0.029    0.510    0.514
 dbcsr_data_release             1254132 10.2    0.489    0.500    0.489    0.500
 transfer_rs2pw_500                  26  8.9    0.128    0.136    0.377    0.471
 potential_pw2rs                     23 10.0    0.002    0.002    0.436    0.437
 dbcsr_destroy                   123088  8.3    0.203    0.205    0.378    0.392
 cp_fm_finish_copy_general        14868  7.8    0.365    0.367    0.388    0.392
 xc_pw_divergence                    23 10.0    0.000    0.000    0.374    0.379
 mp_sendrecv_dv                     686 10.0    0.292    0.376    0.292    0.376
 dbcsr_iterator_stop             245521  9.0    0.304    0.305    0.359    0.362
 dbcsr_copy                       21881  7.8    0.071    0.073    0.302    0.355
 x_to_yz                            230 13.2    0.041    0.043    0.331    0.348
 mp_waitall_1                    148895  8.3    0.213    0.341    0.213    0.341
 write_kpoints_restart               23  5.0    0.002    0.005    0.332    0.333
 transfer_pw2rs                      93 11.0    0.001    0.001    0.312    0.313
 mp_bcast_im                      71840  8.3    0.265    0.306    0.265    0.306
 cp_cfm_triangular_multiply        2319  7.9    0.286    0.291    0.286    0.291
 quick_finalize                   48718  9.4    0.151    0.154    0.264    0.268
 dbcsr_copy_into_existing         11991  9.9    0.145    0.197    0.214    0.265
 transfer_pw2rs_500                  24 11.8    0.122    0.125    0.232    0.237
 yz_to_x                            189 12.8    0.025    0.025    0.226    0.234
 kpoint_density_matrices             23  7.0    0.013    0.013    0.222    0.226
 parallel_gemm_fm                  2944  8.0    0.003    0.003    0.201    0.205
 mp_comm_free                     73765  8.9    0.186    0.203    0.186    0.203
 parallel_gemm_fm_gemm             2944  9.0    0.003    0.003    0.199    0.202
 cp_fm_gemm                        2944 10.0    0.196    0.200    0.196    0.200
 xc_functional_eval                  23 11.0    0.000    0.000    0.171    0.174
 pbe_lda_eval                        23 12.0    0.171    0.174    0.171    0.174
 mp_sum_dv                          318  3.3    0.066    0.147    0.066    0.147
 evaluate_core_matrix_traces         23  6.0    0.000    0.000    0.141    0.141
 calculate_ptrace_kp                 46  7.0    0.007    0.008    0.141    0.141
 dbcsr_dot                         9891  8.0    0.051    0.059    0.135    0.136
 cp_fm_write_unformatted            430  6.0    0.087    0.112    0.089    0.121
 restraint_control                    1  2.0    0.000    0.000    0.060    0.120
 mp_sum_i                             4  2.8    0.060    0.120    0.060    0.120
 init_scf_run                         1  3.0    0.000    0.000    0.114    0.115
 scf_env_initial_rho_setup            1  4.0    0.000    0.000    0.114    0.115
 mp_isend_dv                      36512  8.2    0.101    0.113    0.101    0.113
 dbcsr_set                        71767  8.1    0.068    0.070    0.101    0.111
 cp_cfm_cholesky_decompose          773  7.9    0.100    0.104    0.100    0.104
 cp_cfm_triangular_invert           773  7.9    0.100    0.102    0.100    0.102
 dbcsr_sort_indices               98489 10.9    0.097    0.102    0.097    0.102
 dbcsr_iterator_seek             245521 10.0    0.087    0.096    0.087    0.096
 pw_scatter_p                       230 12.2    0.093    0.095    0.093    0.095
 mp_sum_d                         10497  8.7    0.078    0.089    0.078    0.089
 self_consistency_check              23  5.0    0.007    0.008    0.086    0.088
 dbcsr_reserve_all_blocks         11776 10.0    0.018    0.019    0.083    0.087
 parser_read_line                  5046  4.1    0.002    0.002    0.081    0.082
 dbcsr_reserve_blocks             13421 10.4    0.062    0.067    0.075    0.081
 parser_read_line_low                23  6.2    0.008    0.031    0.079    0.080
 qs_init_subsys                       1  2.0    0.001    0.002    0.079    0.079
 dbcsr_make_index_exist          132978  9.3    0.074    0.079    0.074    0.079
 pw_poisson_solve                    23  8.0    0.000    0.000    0.078    0.078
 merge_index                      36350 11.3    0.074    0.077    0.074    0.077
 qs_env_setup                         1  3.0    0.000    0.000    0.077    0.077
 qs_env_rebuild_pw_env                2  3.5    0.000    0.000    0.076    0.077
 pw_env_rebuild                       1  5.0    0.001    0.001    0.076    0.076
 broadcast_input_information         23  7.2    0.026    0.029    0.071    0.076
 qs_energies_init_hamiltonians        1  3.0    0.000    0.000    0.075    0.075
 cp_sm_mix                         4945  6.0    0.020    0.024    0.070    0.073
 kpoint_set_mo_occupation            23  7.0    0.023    0.023    0.058    0.070
 pw_grid_setup                        4  6.0    0.000    0.000    0.069    0.069
 pw_grid_setup_internal               4  7.0    0.002    0.002    0.069    0.069
 mp_irecv_iv                     143680  8.3    0.009    0.069    0.009    0.069
 fft_wrap_pw1pw2_170                 47 10.5    0.004    0.005    0.065    0.068
 transfer_pw2rs_170                  23 12.0    0.030    0.031    0.061    0.067
 transfer_rs2pw_170                  24  9.0    0.024    0.024    0.056    0.063
 topology_control                     1  2.0    0.000    0.000    0.061    0.061
 dbcsr_switch_data_area           48718 10.4    0.044    0.044    0.057    0.058
 mp_isendrecv_dv                    651 13.0    0.028    0.057    0.028    0.057
 cp_fm_cleanup_copy_general       25616  7.0    0.035    0.035    0.052    0.053
 pw_integral_ab_c1d_c1d_gs           23  9.0    0.050    0.050    0.051    0.052
 create_qs_kind_set                   1  2.0    0.000    0.000    0.050    0.051
 read_qs_kind                         1  3.0    0.025    0.027    0.050    0.051
 pw_grid_sort                         4  8.0    0.033    0.034    0.047    0.048
 mp_isend_iv                      80968  8.3    0.013    0.047    0.013    0.047
 mp_sum_dm3                          23  8.0    0.035    0.047    0.035    0.047
 qs_env_update_s_mstruct              1  4.0    0.000    0.000    0.042    0.044
 mp_max_d                          4947  7.0    0.038    0.043    0.038    0.043
 read_cell_cif                        2  4.5    0.002    0.005    0.042    0.043
 pw_gather_p                        189 11.8    0.041    0.042    0.041    0.042
 scf_post_calculation_gpw             1  3.0    0.000    0.000    0.042    0.042
 write_available_results              1  4.0    0.000    0.000    0.042    0.042
 dbcsr_zero                       71767  9.1    0.033    0.042    0.033    0.042
 write_mo_free_results                1  5.0    0.002    0.002    0.042    0.042
 dbcsr_data_copy_aa2              36350 11.3    0.036    0.042    0.036    0.042
 calculate_rho_core                   1  5.0    0.002    0.003    0.036    0.038
 coordinate_control                   1  3.0    0.000    0.001    0.037    0.037
 coordinate_control_READ_COORDI       1  4.0    0.000    0.000    0.037    0.037
 read_coordinate_cif                  1  5.0    0.002    0.002    0.037    0.037
 cp_dbcsr_alloc_block_from_nbl     1645  5.2    0.015    0.022    0.026    0.036
 mp_irecv_im2                     71840  8.3    0.004    0.034    0.004    0.034
 cp_cfm_scale_and_add_fm           3092  6.9    0.033    0.034    0.033    0.034
 build_core_hamiltonian_matrix        1  4.0    0.001    0.001    0.029    0.033
 dbcsr_distribution_new           36352  8.6    0.030    0.033    0.030    0.033
 mixing_init                          1  5.0    0.031    0.032    0.032    0.032
 mp_bcast_i_src                      92  8.2    0.027    0.032    0.027    0.032
 dbcsr_get_data_size_used         85068  9.8    0.029    0.031    0.029    0.031
 pw_copy                            345 10.5    0.029    0.030    0.029    0.030
 dbcsr_make_dbcsr_index           98489 10.9    0.026    0.028    0.026    0.028
 pw_derive                          207 11.3    0.026    0.027    0.026    0.027
 pw_copy_from_array                 230 12.2    0.019    0.025    0.019    0.025
 mp_isend_im2                     40484  8.3    0.006    0.022    0.006    0.022
 mp_irecv_dv                      36512  8.2    0.021    0.022    0.021    0.022
 hirshfeld_integration                1  6.0    0.004    0.008    0.019    0.019
 calculate_hirshfeld_normalizat       1  6.0    0.003    0.007    0.018    0.019
 mp_bcast_am_src                     23  8.2    0.013    0.014    0.018    0.019
 pw_poisson_set                      24  8.9    0.000    0.000    0.018    0.018
 fft_wrap_pw1pw2_60                  47 10.5    0.001    0.001    0.016    0.016
 cp_cfm_to_cfm_columns              773  7.9    0.015    0.015    0.015    0.015
 transfer_pw2rs_60                   23 12.0    0.005    0.005    0.013    0.015
 sort_shells                          4  9.0    0.014    0.014    0.014    0.014
 cp_cfm_to_fm                       773  6.9    0.013    0.014    0.013    0.014
 transfer_rs2pw_60                   24  9.0    0.004    0.004    0.012    0.013
 mixing_allocate                      1  3.0    0.001    0.001    0.010    0.013
 pw_grid_assign                       4  8.0    0.010    0.011    0.011    0.012
 pw_axpy                            234  9.3    0.011    0.011    0.011    0.011
 mp_sum_dm                           22  7.0    0.007    0.011    0.007    0.011
 cp_fm_create                       446  3.9    0.010    0.010    0.010    0.010
 build_overlap_matrix_low             1  5.0    0.003    0.004    0.008    0.009
 mp_sum_l                           429  2.1    0.008    0.009    0.008    0.009
 pw_copy_to_array                   189 11.8    0.008    0.009    0.008    0.009
 mp_recv_dv                        1290  7.0    0.001    0.009    0.001    0.009
 build_kinetic_matrix_low             1  5.0    0.002    0.003    0.006    0.008
 cp_fm_to_fm_matrix                1472  8.0    0.007    0.008    0.007    0.008
 kpoint_initialize_mos                2  2.5    0.000    0.000    0.007    0.007
 pw_zero                            116 10.4    0.006    0.007    0.006    0.007
 fft_wrap_pw1pw2_20                  47 10.5    0.000    0.000    0.007    0.007
 calculate_first_density_matrix       1  5.0    0.000    0.000    0.006    0.007
 calculate_atomic_block_dm            1  6.0    0.001    0.001    0.005    0.006
 qs_env_rebuild_rho                   1  5.0    0.000    0.000    0.004    0.006
 qs_rho_rebuild                       1  6.0    0.001    0.001    0.004    0.006
 mp_maxloc_dv                       881  1.0    0.005    0.006    0.005    0.006
 transfer_pw2rs_20                   23 12.0    0.002    0.002    0.005    0.005
 grid_free_task_list                  1  2.0    0.005    0.005    0.005    0.005
 transfer_rs2pw_20                   24  9.0    0.002    0.002    0.004    0.005
 mp_bcast_av                        440  1.0    0.002    0.003    0.004    0.005
 init_cube_info                       4  6.0    0.005    0.005    0.005    0.005
 -------------------------------------------------------------------------------

 The number of warnings for this run is : 1
 
 -------------------------------------------------------------------------------
  **** **** ******  **  PROGRAM ENDED AT                 2025-08-04 23:43:41.563
 ***** ** ***  *** **   PROGRAM RAN ON                              i04r10c01s10
 **    ****   ******    PROGRAM RAN BY                                   di38fab
 ***** **    ** ** **   PROGRAM PROCESS ID                                114557
  **** **  *******  **  PROGRAM STOPPED IN /hppfs/scratch/04/di38fab/09_GTH/Delt
                                           a_Set/Ar/aug-DZVP-MOLOPT-GTH-tier-1/8
                                           x8x8
