Ar                                      
   1.00000000000000     
     5.950590    0.000000    0.000000
     0.000000    5.950590    0.000000
     0.000000    0.000000    5.950590
   Ar
     4
Direct
  0.000000  0.000000  0.000000
  0.000000  0.500000  0.500000
  0.500000  0.000000  0.500000
  0.500000  0.500000  0.000000
 
   56   56   56
 0.78049722432E+02 0.13975645045E+03 0.28944128070E+03 0.44528406396E+03 0.53197799570E+03
 0.52076011432E+03 0.43266671534E+03 0.31385724827E+03 0.20718079605E+03 0.13077108543E+03
 0.80987338609E+02 0.50083195622E+02 0.31100206860E+02 0.19310331743E+02 0.11996383179E+02
 0.75371359680E+01 0.47831430668E+01 0.30133711546E+01 0.19173997456E+01 0.12983468424E+01
 0.90052324799E+00 0.57635611797E+00 0.37625133982E+00 0.33094912967E+00 0.31730998484E+00
 0.24658720405E+00 0.19924853325E+00 0.24313798475E+00 0.28564980674E+00 0.24313798475E+00
 0.19924853325E+00 0.24658720405E+00 0.31730998484E+00 0.33094912967E+00 0.37625133982E+00
 0.57635611797E+00 0.90052324799E+00 0.12983468424E+01 0.19173997456E+01 0.30133711546E+01
 0.47831430668E+01 0.75371359680E+01 0.11996383179E+02 0.19310331743E+02 0.31100206860E+02
 0.50083195622E+02 0.80987338609E+02 0.13077108543E+03 0.20718079605E+03 0.31385724827E+03
 0.43266671534E+03 0.52076011432E+03 0.53197799570E+03 0.44528406396E+03 0.28944128070E+03
 0.13975645045E+03 0.13975645045E+03 0.19523790792E+03 0.32894509960E+03 0.46545663289E+03
 0.53585374931E+03 0.51480840721E+03 0.42332708046E+03 0.30546999658E+03 0.20153041885E+03
 0.12739021058E+03 0.79065416701E+02 0.49005028530E+02 0.30489893529E+02 0.18962779283E+02
 0.11797939119E+02 0.74214104157E+01 0.47153074912E+01 0.29764764208E+01 0.18981670532E+01
 0.12856840467E+01 0.89126179879E+00 0.57161645589E+00 0.37229395299E+00 0.32058639013E+00
 0.29852514621E+00 0.22207806770E+00 0.16887358830E+00 0.20482236183E+00 0.24313798475E+00
 0.20482236183E+00 0.16887358830E+00 0.22207806770E+00 0.29852514621E+00 0.32058639013E+00
 0.37229395299E+00 0.57161645589E+00 0.89126179879E+00 0.12856840467E+01 0.18981670532E+01
 0.29764764208E+01 0.47153074912E+01 0.74214104157E+01 0.11797939119E+02 0.18962779283E+02
 0.30489893529E+02 0.49005028530E+02 0.79065416701E+02 0.12739021058E+03 0.20153041885E+03
 0.30546999658E+03 0.42332708046E+03 0.51480840721E+03 0.53585374931E+03 0.46545663289E+03
 0.32894509960E+03 0.19523790792E+03 0.28944128070E+03 0.32894509960E+03 0.42174774134E+03
 0.50907296603E+03 0.53855687375E+03 0.49366239898E+03 0.39512141065E+03 0.28132982156E+03
 0.18555392055E+03 0.11783861110E+03 0.73619344053E+02 0.45934786040E+02 0.28743034659E+02
 0.17963634444E+02 0.11225603639E+02 0.70872807844E+01 0.45194637207E+01 0.28696199484E+01
 0.18422558844E+01 0.12496664245E+01 0.86672933074E+00 0.56292695128E+00 0.37162509868E+00
 0.31153326987E+00 0.27877009058E+00 0.20080995678E+00 0.14496559919E+00 0.16887358830E+00
 0.19924853325E+00 0.16887358830E+00 0.14496559919E+00 0.20080995678E+00 0.27877009058E+00
 0.31153326987E+00 0.37162509868E+00 0.56292695128E+00 0.86672933074E+00 0.12496664245E+01
 0.18422558844E+01 0.28696199484E+01 0.45194637207E+01 0.70872807844E+01 0.11225603639E+02
 0.17963634444E+02 0.28743034659E+02 0.45934786040E+02 0.73619344053E+02 0.11783861110E+03
 0.18555392055E+03 0.28132982156E+03 0.39512141065E+03 0.49366239898E+03 0.53855687375E+03
 0.50907296603E+03 0.42174774134E+03 0.32894509960E+03 0.44528406396E+03 0.46545663289E+03
 0.50907296603E+03 0.53815197863E+03 0.52083437674E+03 0.45114764665E+03 0.34889640946E+03
 0.24478410582E+03 0.16192328672E+03 0.10371279148E+03 0.65510932837E+02 0.41317583726E+02
 0.26089566699E+02 0.16433131169E+02 0.10343468229E+02 0.65711594317E+01 0.42169177623E+01
 0.27035193645E+01 0.17547235755E+01 0.11952360746E+01 0.83334695361E+00 0.55792861922E+00
 0.38722100057E+00 0.32943334186E+00 0.30017300008E+00 0.24083094165E+00 0.20080995678E+00
 0.22207806770E+00 0.24658720405E+00 0.22207806770E+00 0.20080995678E+00 0.24083094165E+00
 0.30017300008E+00 0.32943334186E+00 0.38722100057E+00 0.55792861922E+00 0.83334695361E+00
 0.11952360746E+01 0.17547235755E+01 0.27035193645E+01 0.42169177623E+01 0.65711594317E+01
 0.10343468229E+02 0.16433131169E+02 0.26089566699E+02 0.41317583726E+02 0.65510932837E+02
 0.10371279148E+03 0.16192328672E+03 0.24478410582E+03 0.34889640946E+03 0.45114764665E+03
 0.52083437674E+03 0.53815197863E+03 0.50907296603E+03 0.46545663289E+03 0.53197799570E+03
 0.53585374931E+03 0.53855687375E+03 0.52083437674E+03 0.46898494703E+03 0.38580634879E+03
 0.28919813101E+03 0.20151473743E+03 0.13430346505E+03 0.87151981649E+02 0.55894234933E+02
 0.35757306355E+02 0.22847754164E+02 0.14541265356E+02 0.92436762635E+01 0.59255458133E+01
 0.38382250270E+01 0.24938563186E+01 0.16433234073E+01 0.11289338065E+01 0.79662103218E+00
 0.55661028365E+00 0.41175647831E+00 0.35984242536E+00 0.33733017187E+00 0.30017300008E+00
 0.27877009058E+00 0.29852514621E+00 0.31730998484E+00 0.29852514621E+00 0.27877009058E+00
 0.30017300008E+00 0.33733017187E+00 0.35984242536E+00 0.41175647831E+00 0.55661028365E+00
 0.79662103218E+00 0.11289338065E+01 0.16433234073E+01 0.24938563186E+01 0.38382250270E+01
 0.59255458133E+01 0.92436762635E+01 0.14541265356E+02 0.22847754164E+02 0.35757306355E+02
 0.55894234933E+02 0.87151981649E+02 0.13430346505E+03 0.20151473743E+03 0.28919813101E+03
 0.38580634879E+03 0.46898494703E+03 0.52083437674E+03 0.53855687375E+03 0.53585374931E+03
 0.52076011432E+03 0.51480840721E+03 0.49366239898E+03 0.45114764665E+03 0.38580634879E+03
 0.30548179615E+03 0.22513159596E+03 0.15758305552E+03 0.10639010912E+03 0.70267332905E+02
 0.45917325171E+02 0.29870974968E+02 0.19354174803E+02 0.12473818621E+02 0.80293837791E+01
 0.52095120477E+01 0.34176901506E+01 0.22590286773E+01 0.15181914992E+01 0.10591043865E+01
 0.76326413815E+00 0.55977954487E+00 0.43776514463E+00 0.38602493988E+00 0.35984242536E+00
 0.32943334186E+00 0.31153326987E+00 0.32058639013E+00 0.33094912967E+00 0.32058639013E+00
 0.31153326987E+00 0.32943334186E+00 0.35984242536E+00 0.38602493988E+00 0.43776514463E+00
 0.55977954487E+00 0.76326413815E+00 0.10591043865E+01 0.15181914992E+01 0.22590286773E+01
 0.34176901506E+01 0.52095120477E+01 0.80293837791E+01 0.12473818621E+02 0.19354174803E+02
 0.29870974968E+02 0.45917325171E+02 0.70267332905E+02 0.10639010912E+03 0.15758305552E+03
 0.22513159596E+03 0.30548179615E+03 0.38580634879E+03 0.45114764665E+03 0.49366239898E+03
 0.51480840721E+03 0.43266671534E+03 0.42332708046E+03 0.39512141065E+03 0.34889640946E+03
 0.28919813101E+03 0.22513159596E+03 0.16632280981E+03 0.11784634627E+03 0.81037285181E+02
 0.54679857816E+02 0.36488846572E+02 0.24172650857E+02 0.15904828574E+02 0.10401689847E+02
 0.67984778935E+01 0.44796774649E+01 0.29885188597E+01 0.20183770984E+01 0.13919035946E+01
 0.99697280992E+00 0.74518332935E+00 0.58094009734E+00 0.48408603055E+00 0.43776514463E+00
 0.41175647831E+00 0.38722100057E+00 0.37162509868E+00 0.37229395299E+00 0.37625133982E+00
 0.37229395299E+00 0.37162509868E+00 0.38722100057E+00 0.41175647831E+00 0.43776514463E+00
 0.48408603055E+00 0.58094009734E+00 0.74518332935E+00 0.99697280992E+00 0.13919035946E+01
 0.20183770984E+01 0.29885188597E+01 0.44796774649E+01 0.67984778935E+01 0.10401689847E+02
 0.15904828574E+02 0.24172650857E+02 0.36488846572E+02 0.54679857816E+02 0.81037285181E+02
 0.11784634627E+03 0.16632280981E+03 0.22513159596E+03 0.28919813101E+03 0.34889640946E+03
 0.39512141065E+03 0.42332708046E+03 0.31385724827E+03 0.30546999658E+03 0.28132982156E+03
 0.24478410582E+03 0.20151473743E+03 0.15758305552E+03 0.11784634627E+03 0.85053342853E+02
 0.59814817187E+02 0.41316697979E+02 0.28175274305E+02 0.19016208390E+02 0.12720901196E+02
 0.84602131623E+01 0.56316239811E+01 0.37837841656E+01 0.25798376245E+01 0.17913393258E+01
 0.12797393590E+01 0.95702541124E+00 0.75852730895E+00 0.64101380389E+00 0.58094009734E+00
 0.55977954487E+00 0.55661028365E+00 0.55792861922E+00 0.56292695128E+00 0.57161645589E+00
 0.57635611797E+00 0.57161645589E+00 0.56292695128E+00 0.55792861922E+00 0.55661028365E+00
 0.55977954487E+00 0.58094009734E+00 0.64101380389E+00 0.75852730895E+00 0.95702541124E+00
 0.12797393590E+01 0.17913393258E+01 0.25798376245E+01 0.37837841656E+01 0.56316239811E+01
 0.84602131623E+01 0.12720901196E+02 0.19016208390E+02 0.28175274305E+02 0.41316697979E+02
 0.59814817187E+02 0.85053342853E+02 0.11784634627E+03 0.15758305552E+03 0.20151473743E+03
 0.24478410582E+03 0.28132982156E+03 0.30546999658E+03 0.20718079605E+03 0.20153041885E+03
 0.18555392055E+03 0.16192328672E+03 0.13430346505E+03 0.10639010912E+03 0.81037285181E+02
 0.59814817187E+02 0.43094878397E+02 0.30473265831E+02 0.21223190213E+02 0.14594165676E+02
 0.99396275991E+01 0.67401805790E+01 0.45862229521E+01 0.31578019786E+01 0.22159253640E+01
 0.15975471962E+01 0.12000759500E+01 0.95722168804E+00 0.82143041914E+00 0.75852730895E+00
 0.74518332935E+00 0.76326413815E+00 0.79662103218E+00 0.83334695361E+00 0.86672933074E+00
 0.89126179879E+00 0.90052324799E+00 0.89126179879E+00 0.86672933074E+00 0.83334695361E+00
 0.79662103218E+00 0.76326413815E+00 0.74518332935E+00 0.75852730895E+00 0.82143041914E+00
 0.95722168804E+00 0.12000759500E+01 0.15975471962E+01 0.22159253640E+01 0.31578019786E+01
 0.45862229521E+01 0.67401805790E+01 0.99396275991E+01 0.14594165676E+02 0.21223190213E+02
 0.30473265831E+02 0.43094878397E+02 0.59814817187E+02 0.81037285181E+02 0.10639010912E+03
 0.13430346505E+03 0.16192328672E+03 0.18555392055E+03 0.20153041885E+03 0.13077108543E+03
 0.12739021058E+03 0.11783861110E+03 0.10371279148E+03 0.87151981649E+02 0.70267332905E+02
 0.54679857816E+02 0.41316697979E+02 0.30473265831E+02 0.22025512652E+02 0.15649779280E+02
 0.10969142089E+02 0.76224350689E+01 0.52887433183E+01 0.36960700937E+01 0.26263092627E+01
 0.19171536226E+01 0.14574338858E+01 0.11747502768E+01 0.10201915379E+01 0.95722168804E+00
 0.95702541124E+00 0.99697280992E+00 0.10591043865E+01 0.11289338065E+01 0.11952360746E+01
 0.12496664245E+01 0.12856840467E+01 0.12983468424E+01 0.12856840467E+01 0.12496664245E+01
 0.11952360746E+01 0.11289338065E+01 0.10591043865E+01 0.99697280992E+00 0.95702541124E+00
 0.95722168804E+00 0.10201915379E+01 0.11747502768E+01 0.14574338858E+01 0.19171536226E+01
 0.26263092627E+01 0.36960700937E+01 0.52887433183E+01 0.76224350689E+01 0.10969142089E+02
 0.15649779280E+02 0.22025512652E+02 0.30473265831E+02 0.41316697979E+02 0.54679857816E+02
 0.70267332905E+02 0.87151981649E+02 0.10371279148E+03 0.11783861110E+03 0.12739021058E+03
 0.80987338609E+02 0.79065416701E+02 0.73619344053E+02 0.65510932837E+02 0.55894234933E+02
 0.45917325171E+02 0.36488846572E+02 0.28175274305E+02 0.21223190213E+02 0.15649779280E+02
 0.11339441342E+02 0.81134536279E+01 0.57714765377E+01 0.41170128765E+01 0.29753461794E+01
 0.22050825383E+01 0.17016379462E+01 0.13927672280E+01 0.12291705381E+01 0.11747502768E+01
 0.12000759500E+01 0.12797393590E+01 0.13919035946E+01 0.15181914992E+01 0.16433234073E+01
 0.17547235755E+01 0.18422558844E+01 0.18981670532E+01 0.19173997456E+01 0.18981670532E+01
 0.18422558844E+01 0.17547235755E+01 0.16433234073E+01 0.15181914992E+01 0.13919035946E+01
 0.12797393590E+01 0.12000759500E+01 0.11747502768E+01 0.12291705381E+01 0.13927672280E+01
 0.17016379462E+01 0.22050825383E+01 0.29753461794E+01 0.41170128765E+01 0.57714765377E+01
 0.81134536279E+01 0.11339441342E+02 0.15649779280E+02 0.21223190213E+02 0.28175274305E+02
 0.36488846572E+02 0.45917325171E+02 0.55894234933E+02 0.65510932837E+02 0.73619344053E+02
 0.79065416701E+02 0.50083195622E+02 0.49005028530E+02 0.45934786040E+02 0.41317583726E+02
 0.35757306355E+02 0.29870974968E+02 0.24172650857E+02 0.19016208390E+02 0.14594165676E+02
 0.10969142089E+02 0.81134536279E+01 0.59437639306E+01 0.43487226200E+01 0.32111874990E+01
 0.24249789423E+01 0.19045233292E+01 0.15867521890E+01 0.14270573492E+01 0.13927672280E+01
 0.14574338858E+01 0.15975471962E+01 0.17913393258E+01 0.20183770984E+01 0.22590286773E+01
 0.24938563186E+01 0.27035193645E+01 0.28696199484E+01 0.29764764208E+01 0.30133711546E+01
 0.29764764208E+01 0.28696199484E+01 0.27035193645E+01 0.24938563186E+01 0.22590286773E+01
 0.20183770984E+01 0.17913393258E+01 0.15975471962E+01 0.14574338858E+01 0.13927672280E+01
 0.14270573492E+01 0.15867521890E+01 0.19045233292E+01 0.24249789423E+01 0.32111874990E+01
 0.43487226200E+01 0.59437639306E+01 0.81134536279E+01 0.10969142089E+02 0.14594165676E+02
 0.19016208390E+02 0.24172650857E+02 0.29870974968E+02 0.35757306355E+02 0.41317583726E+02
 0.45934786040E+02 0.49005028530E+02 0.31100206860E+02 0.30489893529E+02 0.28743034659E+02
 0.26089566699E+02 0.22847754164E+02 0.19354174803E+02 0.15904828574E+02 0.12720901196E+02
 0.99396275991E+01 0.76224350689E+01 0.57714765377E+01 0.43487226200E+01 0.32946389955E+01
 0.25443624987E+01 0.20392950172E+01 0.17327953750E+01 0.15904092010E+01 0.15867521890E+01
 0.17016379462E+01 0.19171536226E+01 0.22159253640E+01 0.25798376245E+01 0.29885188597E+01
 0.34176901506E+01 0.38382250270E+01 0.42169177623E+01 0.45194637207E+01 0.47153074912E+01
 0.47831430668E+01 0.47153074912E+01 0.45194637207E+01 0.42169177623E+01 0.38382250270E+01
 0.34176901506E+01 0.29885188597E+01 0.25798376245E+01 0.22159253640E+01 0.19171536226E+01
 0.17016379462E+01 0.15867521890E+01 0.15904092010E+01 0.17327953750E+01 0.20392950172E+01
 0.25443624987E+01 0.32946389955E+01 0.43487226200E+01 0.57714765377E+01 0.76224350689E+01
 0.99396275991E+01 0.12720901196E+02 0.15904828574E+02 0.19354174803E+02 0.22847754164E+02
 0.26089566699E+02 0.28743034659E+02 0.30489893529E+02 0.19310331743E+02 0.18962779283E+02
 0.17963634444E+02 0.16433131169E+02 0.14541265356E+02 0.12473818621E+02 0.10401689847E+02
 0.84602131623E+01 0.67401805790E+01 0.52887433183E+01 0.41170128765E+01 0.32111874990E+01
 0.25443624987E+01 0.20865651668E+01 0.18113075004E+01 0.16982340391E+01 0.17327953750E+01
 0.19045233292E+01 0.22050825383E+01 0.26263092627E+01 0.31578019786E+01 0.37837841656E+01
 0.44796774649E+01 0.52095120477E+01 0.59255458133E+01 0.65711594317E+01 0.70872807844E+01
 0.74214104157E+01 0.75371359680E+01 0.74214104157E+01 0.70872807844E+01 0.65711594317E+01
 0.59255458133E+01 0.52095120477E+01 0.44796774649E+01 0.37837841656E+01 0.31578019786E+01
 0.26263092627E+01 0.22050825383E+01 0.19045233292E+01 0.17327953750E+01 0.16982340391E+01
 0.18113075004E+01 0.20865651668E+01 0.25443624987E+01 0.32111874990E+01 0.41170128765E+01
 0.52887433183E+01 0.67401805790E+01 0.84602131623E+01 0.10401689847E+02 0.12473818621E+02
 0.14541265356E+02 0.16433131169E+02 0.17963634444E+02 0.18962779283E+02 0.11996383179E+02
 0.11797939119E+02 0.11225603639E+02 0.10343468229E+02 0.92436762635E+01 0.80293837791E+01
 0.67984778935E+01 0.56316239811E+01 0.45862229521E+01 0.36960700937E+01 0.29753461794E+01
 0.24249789423E+01 0.20392950172E+01 0.18113075004E+01 0.17359162206E+01 0.18113075004E+01
 0.20392950172E+01 0.24249789423E+01 0.29753461794E+01 0.36960700937E+01 0.45862229521E+01
 0.56316239811E+01 0.67984778935E+01 0.80293837791E+01 0.92436762635E+01 0.10343468229E+02
 0.11225603639E+02 0.11797939119E+02 0.11996383179E+02 0.11797939119E+02 0.11225603639E+02
 0.10343468229E+02 0.92436762635E+01 0.80293837791E+01 0.67984778935E+01 0.56316239811E+01
 0.45862229521E+01 0.36960700937E+01 0.29753461794E+01 0.24249789423E+01 0.20392950172E+01
 0.18113075004E+01 0.17359162206E+01 0.18113075004E+01 0.20392950172E+01 0.24249789423E+01
 0.29753461794E+01 0.36960700937E+01 0.45862229521E+01 0.56316239811E+01 0.67984778935E+01
 0.80293837791E+01 0.92436762635E+01 0.10343468229E+02 0.11225603639E+02 0.11797939119E+02
 0.75371359680E+01 0.74214104157E+01 0.70872807844E+01 0.65711594317E+01 0.59255458133E+01
 0.52095120477E+01 0.44796774649E+01 0.37837841656E+01 0.31578019786E+01 0.26263092627E+01
 0.22050825383E+01 0.19045233292E+01 0.17327953750E+01 0.16982340391E+01 0.18113075004E+01
 0.20865651668E+01 0.25443624987E+01 0.32111874990E+01 0.41170128765E+01 0.52887433183E+01
 0.67401805790E+01 0.84602131623E+01 0.10401689847E+02 0.12473818621E+02 0.14541265356E+02
 0.16433131169E+02 0.17963634444E+02 0.18962779283E+02 0.19310331743E+02 0.18962779283E+02
 0.17963634444E+02 0.16433131169E+02 0.14541265356E+02 0.12473818621E+02 0.10401689847E+02
 0.84602131623E+01 0.67401805790E+01 0.52887433183E+01 0.41170128765E+01 0.32111874990E+01
 0.25443624987E+01 0.20865651668E+01 0.18113075004E+01 0.16982340391E+01 0.17327953750E+01
 0.19045233292E+01 0.22050825383E+01 0.26263092627E+01 0.31578019786E+01 0.37837841656E+01
 0.44796774649E+01 0.52095120477E+01 0.59255458133E+01 0.65711594317E+01 0.70872807844E+01
 0.74214104157E+01 0.47831430668E+01 0.47153074912E+01 0.45194637207E+01 0.42169177623E+01
 0.38382250270E+01 0.34176901506E+01 0.29885188597E+01 0.25798376245E+01 0.22159253640E+01
 0.19171536226E+01 0.17016379462E+01 0.15867521890E+01 0.15904092010E+01 0.17327953750E+01
 0.20392950172E+01 0.25443624987E+01 0.32946389955E+01 0.43487226200E+01 0.57714765377E+01
 0.76224350689E+01 0.99396275991E+01 0.12720901196E+02 0.15904828574E+02 0.19354174803E+02
 0.22847754164E+02 0.26089566699E+02 0.28743034659E+02 0.30489893529E+02 0.31100206860E+02
 0.30489893529E+02 0.28743034659E+02 0.26089566699E+02 0.22847754164E+02 0.19354174803E+02
 0.15904828574E+02 0.12720901196E+02 0.99396275991E+01 0.76224350689E+01 0.57714765377E+01
 0.43487226200E+01 0.32946389955E+01 0.25443624987E+01 0.20392950172E+01 0.17327953750E+01
 0.15904092010E+01 0.15867521890E+01 0.17016379462E+01 0.19171536226E+01 0.22159253640E+01
 0.25798376245E+01 0.29885188597E+01 0.34176901506E+01 0.38382250270E+01 0.42169177623E+01
 0.45194637207E+01 0.47153074912E+01 0.30133711546E+01 0.29764764208E+01 0.28696199484E+01
 0.27035193645E+01 0.24938563186E+01 0.22590286773E+01 0.20183770984E+01 0.17913393258E+01
 0.15975471962E+01 0.14574338858E+01 0.13927672280E+01 0.14270573492E+01 0.15867521890E+01
 0.19045233292E+01 0.24249789423E+01 0.32111874990E+01 0.43487226200E+01 0.59437639306E+01
 0.81134536279E+01 0.10969142089E+02 0.14594165676E+02 0.19016208390E+02 0.24172650857E+02
 0.29870974968E+02 0.35757306355E+02 0.41317583726E+02 0.45934786040E+02 0.49005028530E+02
 0.50083195622E+02 0.49005028530E+02 0.45934786040E+02 0.41317583726E+02 0.35757306355E+02
 0.29870974968E+02 0.24172650857E+02 0.19016208390E+02 0.14594165676E+02 0.10969142089E+02
 0.81134536279E+01 0.59437639306E+01 0.43487226200E+01 0.32111874990E+01 0.24249789423E+01
 0.19045233292E+01 0.15867521890E+01 0.14270573492E+01 0.13927672280E+01 0.14574338858E+01
 0.15975471962E+01 0.17913393258E+01 0.20183770984E+01 0.22590286773E+01 0.24938563186E+01
 0.27035193645E+01 0.28696199484E+01 0.29764764208E+01 0.19173997456E+01 0.18981670532E+01
 0.18422558844E+01 0.17547235755E+01 0.16433234073E+01 0.15181914992E+01 0.13919035946E+01
 0.12797393590E+01 0.12000759500E+01 0.11747502768E+01 0.12291705381E+01 0.13927672280E+01
 0.17016379462E+01 0.22050825383E+01 0.29753461794E+01 0.41170128765E+01 0.57714765377E+01
 0.81134536279E+01 0.11339441342E+02 0.15649779280E+02 0.21223190213E+02 0.28175274305E+02
 0.36488846572E+02 0.45917325171E+02 0.55894234933E+02 0.65510932837E+02 0.73619344053E+02
 0.79065416701E+02 0.80987338609E+02 0.79065416701E+02 0.73619344053E+02 0.65510932837E+02
 0.55894234933E+02 0.45917325171E+02 0.36488846572E+02 0.28175274305E+02 0.21223190213E+02
 0.15649779280E+02 0.11339441342E+02 0.81134536279E+01 0.57714765377E+01 0.41170128765E+01
 0.29753461794E+01 0.22050825383E+01 0.17016379462E+01 0.13927672280E+01 0.12291705381E+01
 0.11747502768E+01 0.12000759500E+01 0.12797393590E+01 0.13919035946E+01 0.15181914992E+01
 0.16433234073E+01 0.17547235755E+01 0.18422558844E+01 0.18981670532E+01 0.12983468424E+01
 0.12856840467E+01 0.12496664245E+01 0.11952360746E+01 0.11289338065E+01 0.10591043865E+01
 0.99697280992E+00 0.95702541124E+00 0.95722168804E+00 0.10201915379E+01 0.11747502768E+01
 0.14574338858E+01 0.19171536226E+01 0.26263092627E+01 0.36960700937E+01 0.52887433183E+01
 0.76224350689E+01 0.10969142089E+02 0.15649779280E+02 0.22025512652E+02 0.30473265831E+02
 0.41316697979E+02 0.54679857816E+02 0.70267332905E+02 0.87151981649E+02 0.10371279148E+03
 0.11783861110E+03 0.12739021058E+03 0.13077108543E+03 0.12739021058E+03 0.11783861110E+03
 0.10371279148E+03 0.87151981649E+02 0.70267332905E+02 0.54679857816E+02 0.41316697979E+02
 0.30473265831E+02 0.22025512652E+02 0.15649779280E+02 0.10969142089E+02 0.76224350689E+01
 0.52887433183E+01 0.36960700937E+01 0.26263092627E+01 0.19171536226E+01 0.14574338858E+01
 0.11747502768E+01 0.10201915379E+01 0.95722168804E+00 0.95702541124E+00 0.99697280992E+00
 0.10591043865E+01 0.11289338065E+01 0.11952360746E+01 0.12496664245E+01 0.12856840467E+01
 0.90052324799E+00 0.89126179879E+00 0.86672933074E+00 0.83334695361E+00 0.79662103218E+00
 0.76326413815E+00 0.74518332935E+00 0.75852730895E+00 0.82143041914E+00 0.95722168804E+00
 0.12000759500E+01 0.15975471962E+01 0.22159253640E+01 0.31578019786E+01 0.45862229521E+01
 0.67401805790E+01 0.99396275991E+01 0.14594165676E+02 0.21223190213E+02 0.30473265831E+02
 0.43094878397E+02 0.59814817187E+02 0.81037285181E+02 0.10639010912E+03 0.13430346505E+03
 0.16192328672E+03 0.18555392055E+03 0.20153041885E+03 0.20718079605E+03 0.20153041885E+03
 0.18555392055E+03 0.16192328672E+03 0.13430346505E+03 0.10639010912E+03 0.81037285181E+02
 0.59814817187E+02 0.43094878397E+02 0.30473265831E+02 0.21223190213E+02 0.14594165676E+02
 0.99396275991E+01 0.67401805790E+01 0.45862229521E+01 0.31578019786E+01 0.22159253640E+01
 0.15975471962E+01 0.12000759500E+01 0.95722168804E+00 0.82143041914E+00 0.75852730895E+00
 0.74518332935E+00 0.76326413815E+00 0.79662103218E+00 0.83334695361E+00 0.86672933074E+00
 0.89126179879E+00 0.57635611797E+00 0.57161645589E+00 0.56292695128E+00 0.55792861922E+00
 0.55661028365E+00 0.55977954487E+00 0.58094009734E+00 0.64101380389E+00 0.75852730895E+00
 0.95702541124E+00 0.12797393590E+01 0.17913393258E+01 0.25798376245E+01 0.37837841656E+01
 0.56316239811E+01 0.84602131623E+01 0.12720901196E+02 0.19016208390E+02 0.28175274305E+02
 0.41316697979E+02 0.59814817187E+02 0.85053342853E+02 0.11784634627E+03 0.15758305552E+03
 0.20151473743E+03 0.24478410582E+03 0.28132982156E+03 0.30546999658E+03 0.31385724827E+03
 0.30546999658E+03 0.28132982156E+03 0.24478410582E+03 0.20151473743E+03 0.15758305552E+03
 0.11784634627E+03 0.85053342853E+02 0.59814817187E+02 0.41316697979E+02 0.28175274305E+02
 0.19016208390E+02 0.12720901196E+02 0.84602131623E+01 0.56316239811E+01 0.37837841656E+01
 0.25798376245E+01 0.17913393258E+01 0.12797393590E+01 0.95702541124E+00 0.75852730895E+00
 0.64101380389E+00 0.58094009734E+00 0.55977954487E+00 0.55661028365E+00 0.55792861922E+00
 0.56292695128E+00 0.57161645589E+00 0.37625133982E+00 0.37229395299E+00 0.37162509868E+00
 0.38722100057E+00 0.41175647831E+00 0.43776514463E+00 0.48408603055E+00 0.58094009734E+00
 0.74518332935E+00 0.99697280992E+00 0.13919035946E+01 0.20183770984E+01 0.29885188597E+01
 0.44796774649E+01 0.67984778935E+01 0.10401689847E+02 0.15904828574E+02 0.24172650857E+02
 0.36488846572E+02 0.54679857816E+02 0.81037285181E+02 0.11784634627E+03 0.16632280981E+03
 0.22513159596E+03 0.28919813101E+03 0.34889640946E+03 0.39512141065E+03 0.42332708046E+03
 0.43266671534E+03 0.42332708046E+03 0.39512141065E+03 0.34889640946E+03 0.28919813101E+03
 0.22513159596E+03 0.16632280981E+03 0.11784634627E+03 0.81037285181E+02 0.54679857816E+02
 0.36488846572E+02 0.24172650857E+02 0.15904828574E+02 0.10401689847E+02 0.67984778935E+01
 0.44796774649E+01 0.29885188597E+01 0.20183770984E+01 0.13919035946E+01 0.99697280992E+00
 0.74518332935E+00 0.58094009734E+00 0.48408603055E+00 0.43776514463E+00 0.41175647831E+00
 0.38722100057E+00 0.37162509868E+00 0.37229395299E+00 0.33094912967E+00 0.32058639013E+00
 0.31153326987E+00 0.32943334186E+00 0.35984242536E+00 0.38602493988E+00 0.43776514463E+00
 0.55977954487E+00 0.76326413815E+00 0.10591043865E+01 0.15181914992E+01 0.22590286773E+01
 0.34176901506E+01 0.52095120477E+01 0.80293837791E+01 0.12473818621E+02 0.19354174803E+02
 0.29870974968E+02 0.45917325171E+02 0.70267332905E+02 0.10639010912E+03 0.15758305552E+03
 0.22513159596E+03 0.30548179615E+03 0.38580634879E+03 0.45114764665E+03 0.49366239898E+03
 0.51480840721E+03 0.52076011432E+03 0.51480840721E+03 0.49366239898E+03 0.45114764665E+03
 0.38580634879E+03 0.30548179615E+03 0.22513159596E+03 0.15758305552E+03 0.10639010912E+03
 0.70267332905E+02 0.45917325171E+02 0.29870974968E+02 0.19354174803E+02 0.12473818621E+02
 0.80293837791E+01 0.52095120477E+01 0.34176901506E+01 0.22590286773E+01 0.15181914992E+01
 0.10591043865E+01 0.76326413815E+00 0.55977954487E+00 0.43776514463E+00 0.38602493988E+00
 0.35984242536E+00 0.32943334186E+00 0.31153326987E+00 0.32058639013E+00 0.31730998484E+00
 0.29852514621E+00 0.27877009058E+00 0.30017300008E+00 0.33733017187E+00 0.35984242536E+00
 0.41175647831E+00 0.55661028365E+00 0.79662103218E+00 0.11289338065E+01 0.16433234073E+01
 0.24938563186E+01 0.38382250270E+01 0.59255458133E+01 0.92436762635E+01 0.14541265356E+02
 0.22847754164E+02 0.35757306355E+02 0.55894234933E+02 0.87151981649E+02 0.13430346505E+03
 0.20151473743E+03 0.28919813101E+03 0.38580634879E+03 0.46898494703E+03 0.52083437674E+03
 0.53855687375E+03 0.53585374931E+03 0.53197799570E+03 0.53585374931E+03 0.53855687375E+03
 0.52083437674E+03 0.46898494703E+03 0.38580634879E+03 0.28919813101E+03 0.20151473743E+03
 0.13430346505E+03 0.87151981649E+02 0.55894234933E+02 0.35757306355E+02 0.22847754164E+02
 0.14541265356E+02 0.92436762635E+01 0.59255458133E+01 0.38382250270E+01 0.24938563186E+01
 0.16433234073E+01 0.11289338065E+01 0.79662103218E+00 0.55661028365E+00 0.41175647831E+00
 0.35984242536E+00 0.33733017187E+00 0.30017300008E+00 0.27877009058E+00 0.29852514621E+00
 0.24658720405E+00 0.22207806770E+00 0.20080995678E+00 0.24083094165E+00 0.30017300008E+00
 0.32943334186E+00 0.38722100057E+00 0.55792861922E+00 0.83334695361E+00 0.11952360746E+01
 0.17547235755E+01 0.27035193645E+01 0.42169177623E+01 0.65711594317E+01 0.10343468229E+02
 0.16433131169E+02 0.26089566699E+02 0.41317583726E+02 0.65510932837E+02 0.10371279148E+03
 0.16192328672E+03 0.24478410582E+03 0.34889640946E+03 0.45114764665E+03 0.52083437674E+03
 0.53815197863E+03 0.50907296603E+03 0.46545663289E+03 0.44528406396E+03 0.46545663289E+03
 0.50907296603E+03 0.53815197863E+03 0.52083437674E+03 0.45114764665E+03 0.34889640946E+03
 0.24478410582E+03 0.16192328672E+03 0.10371279148E+03 0.65510932837E+02 0.41317583726E+02
 0.26089566699E+02 0.16433131169E+02 0.10343468229E+02 0.65711594317E+01 0.42169177623E+01
 0.27035193645E+01 0.17547235755E+01 0.11952360746E+01 0.83334695361E+00 0.55792861922E+00
 0.38722100057E+00 0.32943334186E+00 0.30017300008E+00 0.24083094165E+00 0.20080995678E+00
 0.22207806770E+00 0.19924853325E+00 0.16887358830E+00 0.14496559919E+00 0.20080995678E+00
 0.27877009058E+00 0.31153326987E+00 0.37162509868E+00 0.56292695128E+00 0.86672933074E+00
 0.12496664245E+01 0.18422558844E+01 0.28696199484E+01 0.45194637207E+01 0.70872807844E+01
 0.11225603639E+02 0.17963634444E+02 0.28743034659E+02 0.45934786040E+02 0.73619344053E+02
 0.11783861110E+03 0.18555392055E+03 0.28132982156E+03 0.39512141065E+03 0.49366239898E+03
 0.53855687375E+03 0.50907296603E+03 0.42174774134E+03 0.32894509960E+03 0.28944128070E+03
 0.32894509960E+03 0.42174774134E+03 0.50907296603E+03 0.53855687375E+03 0.49366239898E+03
 0.39512141065E+03 0.28132982156E+03 0.18555392055E+03 0.11783861110E+03 0.73619344053E+02
 0.45934786040E+02 0.28743034659E+02 0.17963634444E+02 0.11225603639E+02 0.70872807844E+01
 0.45194637207E+01 0.28696199484E+01 0.18422558844E+01 0.12496664245E+01 0.86672933074E+00
 0.56292695128E+00 0.37162509868E+00 0.31153326987E+00 0.27877009058E+00 0.20080995678E+00
 0.14496559919E+00 0.16887358830E+00 0.24313798475E+00 0.20482236183E+00 0.16887358830E+00
 0.22207806770E+00 0.29852514621E+00 0.32058639013E+00 0.37229395299E+00 0.57161645589E+00
 0.89126179879E+00 0.12856840467E+01 0.18981670532E+01 0.29764764208E+01 0.47153074912E+01
 0.74214104157E+01 0.11797939119E+02 0.18962779283E+02 0.30489893529E+02 0.49005028530E+02
 0.79065416701E+02 0.12739021058E+03 0.20153041885E+03 0.30546999658E+03 0.42332708046E+03
 0.51480840721E+03 0.53585374931E+03 0.46545663289E+03 0.32894509960E+03 0.19523790792E+03
 0.13975645045E+03 0.19523790792E+03 0.32894509960E+03 0.46545663289E+03 0.53585374931E+03
 0.51480840721E+03 0.42332708046E+03 0.30546999658E+03 0.20153041885E+03 0.12739021058E+03
 0.79065416701E+02 0.49005028530E+02 0.30489893529E+02 0.18962779283E+02 0.11797939119E+02
 0.74214104157E+01 0.47153074912E+01 0.29764764208E+01 0.18981670532E+01 0.12856840467E+01
 0.89126179879E+00 0.57161645589E+00 0.37229395299E+00 0.32058639013E+00 0.29852514621E+00
 0.22207806770E+00 0.16887358830E+00 0.20482236183E+00 0.28564980674E+00 0.24313798475E+00
 0.19924853325E+00 0.24658720405E+00 0.31730998484E+00 0.33094912967E+00 0.37625133982E+00
 0.57635611797E+00 0.90052324799E+00 0.12983468424E+01 0.19173997456E+01 0.30133711546E+01
 0.47831430668E+01 0.75371359680E+01 0.11996383179E+02 0.19310331743E+02 0.31100206860E+02
 0.50083195622E+02 0.80987338609E+02 0.13077108543E+03 0.20718079605E+03 0.31385724827E+03
 0.43266671534E+03 0.52076011432E+03 0.53197799570E+03 0.44528406396E+03 0.28944128070E+03
 0.13975645045E+03 0.78049722432E+02 0.13975645045E+03 0.28944128070E+03 0.44528406396E+03
 0.53197799570E+03 0.52076011432E+03 0.43266671534E+03 0.31385724827E+03 0.20718079605E+03
 0.13077108543E+03 0.80987338609E+02 0.50083195622E+02 0.31100206860E+02 0.19310331743E+02
 0.11996383179E+02 0.75371359680E+01 0.47831430668E+01 0.30133711546E+01 0.19173997456E+01
 0.12983468424E+01 0.90052324799E+00 0.57635611797E+00 0.37625133982E+00 0.33094912967E+00
 0.31730998484E+00 0.24658720405E+00 0.19924853325E+00 0.24313798475E+00 0.24313798475E+00