   4   4   0   0
  0.5267689E+02  0.5950590E-09  0.5950590E-09  0.5950590E-09  0.5000000E-15
  1.000000000000000E-004
  CAR 
 Ar                                      
     16.94109229    -22.52554610  301     -6.19622447      1.00000000
    -22.526  0.0000E+00  0.0000E+00
    -22.394  0.0000E+00  0.0000E+00
    -22.262  0.0000E+00  0.0000E+00
    -22.131  0.0000E+00  0.0000E+00
    -21.999  0.0000E+00  0.0000E+00
    -21.868  0.0000E+00  0.0000E+00
    -21.736  0.0000E+00  0.0000E+00
    -21.605  0.0000E+00  0.0000E+00
    -21.473  0.0000E+00  0.0000E+00
    -21.342  0.0000E+00  0.0000E+00
    -21.210  0.0000E+00  0.0000E+00
    -21.078  0.0000E+00  0.0000E+00
    -20.947  0.2796E-09  0.3678E-10
    -20.815  0.1580E-01  0.2078E-02
    -20.684  0.2407E+02  0.3169E+01
    -20.552  0.3669E+02  0.7995E+01
    -20.421  0.3751E-01  0.8000E+01
    -20.289  0.2083E-09  0.8000E+01
    -20.158  0.0000E+00  0.8000E+01
    -20.026  0.0000E+00  0.8000E+01
    -19.894  0.0000E+00  0.8000E+01
    -19.763  0.0000E+00  0.8000E+01
    -19.631  0.0000E+00  0.8000E+01
    -19.500  0.0000E+00  0.8000E+01
    -19.368  0.0000E+00  0.8000E+01
    -19.237  0.0000E+00  0.8000E+01
    -19.105  0.0000E+00  0.8000E+01
    -18.974  0.0000E+00  0.8000E+01
    -18.842  0.0000E+00  0.8000E+01
    -18.710  0.0000E+00  0.8000E+01
    -18.579  0.0000E+00  0.8000E+01
    -18.447  0.0000E+00  0.8000E+01
    -18.316  0.0000E+00  0.8000E+01
    -18.184  0.0000E+00  0.8000E+01
    -18.053  0.0000E+00  0.8000E+01
    -17.921  0.0000E+00  0.8000E+01
    -17.790  0.0000E+00  0.8000E+01
    -17.658  0.0000E+00  0.8000E+01
    -17.526  0.0000E+00  0.8000E+01
    -17.395  0.0000E+00  0.8000E+01
    -17.263  0.0000E+00  0.8000E+01
    -17.132  0.0000E+00  0.8000E+01
    -17.000  0.0000E+00  0.8000E+01
    -16.869  0.0000E+00  0.8000E+01
    -16.737  0.0000E+00  0.8000E+01
    -16.606  0.0000E+00  0.8000E+01
    -16.474  0.0000E+00  0.8000E+01
    -16.342  0.0000E+00  0.8000E+01
    -16.211  0.0000E+00  0.8000E+01
    -16.079  0.0000E+00  0.8000E+01
    -15.948  0.0000E+00  0.8000E+01
    -15.816  0.0000E+00  0.8000E+01
    -15.685  0.0000E+00  0.8000E+01
    -15.553  0.0000E+00  0.8000E+01
    -15.422  0.0000E+00  0.8000E+01
    -15.290  0.0000E+00  0.8000E+01
    -15.158  0.0000E+00  0.8000E+01
    -15.027  0.0000E+00  0.8000E+01
    -14.895  0.0000E+00  0.8000E+01
    -14.764  0.0000E+00  0.8000E+01
    -14.632  0.0000E+00  0.8000E+01
    -14.501  0.0000E+00  0.8000E+01
    -14.369  0.0000E+00  0.8000E+01
    -14.238  0.0000E+00  0.8000E+01
    -14.106  0.0000E+00  0.8000E+01
    -13.974  0.0000E+00  0.8000E+01
    -13.843  0.0000E+00  0.8000E+01
    -13.711  0.0000E+00  0.8000E+01
    -13.580  0.0000E+00  0.8000E+01
    -13.448  0.0000E+00  0.8000E+01
    -13.317  0.0000E+00  0.8000E+01
    -13.185  0.0000E+00  0.8000E+01
    -13.054  0.0000E+00  0.8000E+01
    -12.922  0.0000E+00  0.8000E+01
    -12.790  0.0000E+00  0.8000E+01
    -12.659  0.0000E+00  0.8000E+01
    -12.527  0.0000E+00  0.8000E+01
    -12.396  0.0000E+00  0.8000E+01
    -12.264  0.0000E+00  0.8000E+01
    -12.133  0.0000E+00  0.8000E+01
    -12.001  0.0000E+00  0.8000E+01
    -11.870  0.0000E+00  0.8000E+01
    -11.738  0.0000E+00  0.8000E+01
    -11.606  0.0000E+00  0.8000E+01
    -11.475  0.0000E+00  0.8000E+01
    -11.343  0.0000E+00  0.8000E+01
    -11.212  0.0000E+00  0.8000E+01
    -11.080  0.0000E+00  0.8000E+01
    -10.949  0.0000E+00  0.8000E+01
    -10.817  0.0000E+00  0.8000E+01
    -10.686  0.0000E+00  0.8000E+01
    -10.554  0.0000E+00  0.8000E+01
    -10.422  0.0000E+00  0.8000E+01
    -10.291  0.0000E+00  0.8000E+01
    -10.159  0.0000E+00  0.8000E+01
    -10.028  0.0000E+00  0.8000E+01
     -9.896  0.0000E+00  0.8000E+01
     -9.765  0.0000E+00  0.8000E+01
     -9.633  0.0000E+00  0.8000E+01
     -9.502  0.0000E+00  0.8000E+01
     -9.370  0.0000E+00  0.8000E+01
     -9.238  0.0000E+00  0.8000E+01
     -9.107  0.0000E+00  0.8000E+01
     -8.975  0.0000E+00  0.8000E+01
     -8.844  0.0000E+00  0.8000E+01
     -8.712  0.0000E+00  0.8000E+01
     -8.581  0.0000E+00  0.8000E+01
     -8.449  0.0000E+00  0.8000E+01
     -8.318  0.0000E+00  0.8000E+01
     -8.186  0.0000E+00  0.8000E+01
     -8.054  0.0000E+00  0.8000E+01
     -7.923  0.0000E+00  0.8000E+01
     -7.791  0.0000E+00  0.8000E+01
     -7.660  0.0000E+00  0.8000E+01
     -7.528  0.0000E+00  0.8000E+01
     -7.397  0.0000E+00  0.8000E+01
     -7.265  0.3165E-14  0.8000E+01
     -7.134  0.2039E-04  0.8000E+01
     -7.002  0.8115E+00  0.8107E+01
     -6.870  0.2649E+02  0.1159E+02
     -6.739  0.3120E+02  0.1570E+02
     -6.607  0.3731E+02  0.2060E+02
     -6.476  0.6972E+02  0.2978E+02
     -6.344  0.1688E+02  0.3200E+02
     -6.213  0.1969E-01  0.3200E+02
     -6.081  0.4908E-09  0.3200E+02
     -5.950  0.0000E+00  0.3200E+02
     -5.818  0.0000E+00  0.3200E+02
     -5.686  0.0000E+00  0.3200E+02
     -5.555  0.0000E+00  0.3200E+02
     -5.423  0.0000E+00  0.3200E+02
     -5.292  0.0000E+00  0.3200E+02
     -5.160  0.0000E+00  0.3200E+02
     -5.029  0.0000E+00  0.3200E+02
     -4.897  0.0000E+00  0.3200E+02
     -4.766  0.0000E+00  0.3200E+02
     -4.634  0.0000E+00  0.3200E+02
     -4.502  0.0000E+00  0.3200E+02
     -4.371  0.0000E+00  0.3200E+02
     -4.239  0.0000E+00  0.3200E+02
     -4.108  0.0000E+00  0.3200E+02
     -3.976  0.0000E+00  0.3200E+02
     -3.845  0.0000E+00  0.3200E+02
     -3.713  0.0000E+00  0.3200E+02
     -3.582  0.0000E+00  0.3200E+02
     -3.450  0.0000E+00  0.3200E+02
     -3.318  0.0000E+00  0.3200E+02
     -3.187  0.0000E+00  0.3200E+02
     -3.055  0.0000E+00  0.3200E+02
     -2.924  0.0000E+00  0.3200E+02
     -2.792  0.0000E+00  0.3200E+02
     -2.661  0.0000E+00  0.3200E+02
     -2.529  0.0000E+00  0.3200E+02
     -2.398  0.0000E+00  0.3200E+02
     -2.266  0.0000E+00  0.3200E+02
     -2.134  0.0000E+00  0.3200E+02
     -2.003  0.0000E+00  0.3200E+02
     -1.871  0.0000E+00  0.3200E+02
     -1.740  0.0000E+00  0.3200E+02
     -1.608  0.0000E+00  0.3200E+02
     -1.477  0.0000E+00  0.3200E+02
     -1.345  0.0000E+00  0.3200E+02
     -1.214  0.0000E+00  0.3200E+02
     -1.082  0.0000E+00  0.3200E+02
     -0.950  0.0000E+00  0.3200E+02
     -0.819  0.0000E+00  0.3200E+02
     -0.687  0.0000E+00  0.3200E+02
     -0.556  0.0000E+00  0.3200E+02
     -0.424  0.0000E+00  0.3200E+02
     -0.293  0.0000E+00  0.3200E+02
     -0.161  0.0000E+00  0.3200E+02
     -0.030  0.0000E+00  0.3200E+02
      0.102  0.0000E+00  0.3200E+02
      0.234  0.0000E+00  0.3200E+02
      0.365  0.0000E+00  0.3200E+02
      0.497  0.0000E+00  0.3200E+02
      0.628  0.0000E+00  0.3200E+02
      0.760  0.0000E+00  0.3200E+02
      0.891  0.0000E+00  0.3200E+02
      1.023  0.0000E+00  0.3200E+02
      1.154  0.0000E+00  0.3200E+02
      1.286  0.0000E+00  0.3200E+02
      1.418  0.0000E+00  0.3200E+02
      1.549  0.0000E+00  0.3200E+02
      1.681  0.0000E+00  0.3200E+02
      1.812  0.1124E-07  0.3200E+02
      1.944  0.2130E-02  0.3200E+02
      2.075  0.1313E+00  0.3202E+02
      2.207  0.3249E+00  0.3206E+02
      2.338  0.3973E+00  0.3211E+02
      2.470  0.6299E+00  0.3220E+02
      2.602  0.6688E+00  0.3228E+02
      2.733  0.7559E+00  0.3238E+02
      2.865  0.9474E+00  0.3251E+02
      2.996  0.7444E+00  0.3261E+02
      3.128  0.1264E+01  0.3277E+02
      3.259  0.9753E+00  0.3290E+02
      3.391  0.1404E+01  0.3308E+02
      3.522  0.1306E+01  0.3326E+02
      3.654  0.1626E+01  0.3347E+02
      3.786  0.1440E+01  0.3366E+02
      3.917  0.1932E+01  0.3391E+02
      4.049  0.1882E+01  0.3416E+02
      4.180  0.1873E+01  0.3441E+02
      4.312  0.2632E+01  0.3475E+02
      4.443  0.1951E+01  0.3501E+02
      4.575  0.2980E+01  0.3540E+02
      4.706  0.3116E+01  0.3581E+02
      4.838  0.3105E+01  0.3622E+02
      4.970  0.4357E+01  0.3679E+02
      5.101  0.3894E+01  0.3731E+02
      5.233  0.4289E+01  0.3787E+02
      5.364  0.3737E+01  0.3836E+02
      5.496  0.3711E+01  0.3885E+02
      5.627  0.3680E+01  0.3934E+02
      5.759  0.4908E+01  0.3998E+02
      5.890  0.3763E+01  0.4048E+02
      6.022  0.2893E+01  0.4086E+02
      6.154  0.3929E+01  0.4137E+02
      6.285  0.4593E+01  0.4198E+02
      6.417  0.5130E+01  0.4265E+02
      6.548  0.7782E+01  0.4368E+02
      6.680  0.8295E+01  0.4477E+02
      6.811  0.6772E+01  0.4566E+02
      6.943  0.9907E+01  0.4696E+02
      7.074  0.1099E+02  0.4841E+02
      7.206  0.7212E+01  0.4936E+02
      7.338  0.6573E+01  0.5022E+02
      7.469  0.5199E+01  0.5091E+02
      7.601  0.4852E+01  0.5154E+02
      7.732  0.4050E+01  0.5208E+02
      7.864  0.4262E+01  0.5264E+02
      7.995  0.3351E+01  0.5308E+02
      8.127  0.2939E+01  0.5346E+02
      8.258  0.3265E+01  0.5389E+02
      8.390  0.2887E+01  0.5427E+02
      8.522  0.2350E+01  0.5458E+02
      8.653  0.2737E+01  0.5494E+02
      8.785  0.3858E+01  0.5545E+02
      8.916  0.4158E+01  0.5600E+02
      9.048  0.7043E+01  0.5692E+02
      9.179  0.1060E+02  0.5832E+02
      9.311  0.1243E+02  0.5995E+02
      9.442  0.1104E+02  0.6141E+02
      9.574  0.6403E+01  0.6225E+02
      9.706  0.5990E+01  0.6304E+02
      9.837  0.3642E+01  0.6352E+02
      9.969  0.2738E+01  0.6388E+02
     10.100  0.3871E+01  0.6438E+02
     10.232  0.5072E+01  0.6505E+02
     10.363  0.3536E+01  0.6552E+02
     10.495  0.4647E+01  0.6613E+02
     10.626  0.6318E+01  0.6696E+02
     10.758  0.5485E+01  0.6768E+02
     10.890  0.5712E+01  0.6843E+02
     11.021  0.6854E+01  0.6933E+02
     11.153  0.7138E+01  0.7027E+02
     11.284  0.6422E+01  0.7112E+02
     11.416  0.5492E+01  0.7184E+02
     11.547  0.4243E+01  0.7240E+02
     11.679  0.4448E+01  0.7298E+02
     11.810  0.4343E+01  0.7356E+02
     11.942  0.4562E+01  0.7416E+02
     12.074  0.6148E+01  0.7496E+02
     12.205  0.6781E+01  0.7586E+02
     12.337  0.8554E+01  0.7698E+02
     12.468  0.7707E+01  0.7800E+02
     12.600  0.1043E+02  0.7937E+02
     12.731  0.1040E+02  0.8074E+02
     12.863  0.1280E+02  0.8242E+02
     12.994  0.1363E+02  0.8421E+02
     13.126  0.9328E+01  0.8544E+02
     13.258  0.8400E+01  0.8655E+02
     13.389  0.6234E+01  0.8737E+02
     13.521  0.7974E+01  0.8841E+02
     13.652  0.5452E+01  0.8913E+02
     13.784  0.4464E+01  0.8972E+02
     13.915  0.5727E+01  0.9047E+02
     14.047  0.6658E+01  0.9135E+02
     14.178  0.4502E+01  0.9194E+02
     14.310  0.4681E+01  0.9256E+02
     14.442  0.9496E+01  0.9381E+02
     14.573  0.3992E+01  0.9433E+02
     14.705  0.3580E+01  0.9480E+02
     14.836  0.4056E+01  0.9534E+02
     14.968  0.2239E+01  0.9563E+02
     15.099  0.2106E+01  0.9591E+02
     15.231  0.7010E+00  0.9600E+02
     15.362  0.2962E-02  0.9600E+02
     15.494  0.1438E-09  0.9600E+02
     15.626  0.0000E+00  0.9600E+02
     15.757  0.0000E+00  0.9600E+02
     15.889  0.0000E+00  0.9600E+02
     16.020  0.0000E+00  0.9600E+02
     16.152  0.0000E+00  0.9600E+02
     16.283  0.0000E+00  0.9600E+02
     16.415  0.0000E+00  0.9600E+02
     16.546  0.0000E+00  0.9600E+02
     16.678  0.0000E+00  0.9600E+02
     16.810  0.0000E+00  0.9600E+02
     16.941  0.0000E+00  0.9600E+02
