Sr                                      
   1.00000000000000     
     6.019690    0.000000    0.000000
     0.000000    6.019690    0.000000
     0.000000    0.000000    6.019690
   Sr
     4
Direct
  0.000000  0.000000  0.000000
  0.000000  0.500000  0.500000
  0.500000  0.000000  0.500000
  0.500000  0.500000  0.000000
 
   56   56   56
  797.03      789.41      764.57      717.83      645.36      548.36      435.36      320.52      218.50      139.03    
  84.368      50.611      31.280      20.835      15.390      12.558      11.043      10.200      9.7133      9.4223    
  9.2369      9.1078      9.0084      8.9254      8.8553      8.8002      8.7621      8.7400      8.7327      8.7400    
  8.7621      8.8002      8.8553      8.9254      9.0084      9.1078      9.2369      9.4223      9.7133      10.200    
  11.043      12.558      15.390      20.835      31.280      50.611      84.368      139.03      218.50      320.52    
  435.36      548.36      645.36      717.83      764.57      789.41      789.41      781.43      755.65      707.77    
  634.51      537.54      425.57      312.57      212.74      135.30      82.190      49.436      30.675      20.535    
  15.242      12.482      11.002      10.176      9.7003      9.4155      9.2342      9.1080      9.0109      8.9294    
  8.8605      8.8064      8.7690      8.7472      8.7400      8.7472      8.7690      8.8064      8.8605      8.9294    
  9.0109      9.1080      9.2342      9.4155      9.7003      10.176      11.002      12.482      15.242      20.535    
  30.675      49.436      82.190      135.30      212.74      312.57      425.57      537.54      634.51      707.77    
  755.65      781.43      764.57      755.65      727.43      676.75      601.81      505.52      397.03      289.67    
  196.29      124.72      76.036      46.114      28.967      19.684      14.817      12.263      10.883      10.110    
  9.6638      9.3968      9.2271      9.1094      9.0183      8.9412      8.8758      8.8248      8.7896      8.7690    
  8.7621      8.7690      8.7896      8.8248      8.8758      8.9412      9.0183      9.1094      9.2271      9.3968    
  9.6638      10.110      10.883      12.263      14.817      19.684      28.967      46.114      76.036      124.72    
  196.29      289.67      397.03      505.52      601.81      676.75      727.43      755.65      717.83      707.77    
  676.75      623.24      547.50      454.05      352.36      254.59      171.51      108.97      66.940      41.199    
  26.435      18.417      14.179      11.930      10.703      10.011      9.6102      9.3709      9.2192      9.1141    
  9.0320      8.9616      8.9018      8.8560      8.8248      8.8064      8.8002      8.8064      8.8248      8.8560    
  8.9018      8.9616      9.0320      9.1141      9.2192      9.3709      9.6102      10.011      10.703      11.930    
  14.179      18.417      26.435      41.199      66.940      108.97      171.51      254.59      352.36      454.05    
  547.50      623.24      676.75      707.77      645.36      634.51      601.81      547.50      473.94      387.07    
  296.18      211.69      141.88      90.433      56.310      35.443      23.461      16.913      13.412      11.526    
  10.482      9.8898      9.5475      9.3437      9.2151      9.1259      9.0551      8.9933      8.9410      8.9018    
  8.8758      8.8605      8.8553      8.8605      8.8758      8.9018      8.9410      8.9933      9.0551      9.1259    
  9.2151      9.3437      9.5475      9.8898      10.482      11.526      13.412      16.913      23.461      35.443    
  56.310      90.433      141.88      211.69      296.18      387.07      473.94      547.50      601.81      634.51    
  548.36      537.54      505.52      454.05      387.07      311.17      234.83      166.30      111.28      71.612    
  45.560      29.608      20.426      15.358      12.604      11.093      10.245      9.7612      9.4832      9.3193    
  9.2170      9.1459      9.0882      9.0368      8.9933      8.9616      8.9412      8.9294      8.9254      8.9294    
  8.9412      8.9616      8.9933      9.0368      9.0882      9.1459      9.2170      9.3193      9.4832      9.7612    
  10.245      11.093      12.604      15.358      20.426      29.608      45.560      71.612      111.28      166.30    
  234.83      311.17      387.07      454.05      505.52      537.54      435.36      425.57      397.03      352.36    
  296.18      234.83      175.31      123.60      83.198      54.560      35.801      24.300      17.635      13.901    
  11.830      10.670      10.011      9.6356      9.4223      9.2992      9.2238      9.1714      9.1278      9.0882    
  9.0551      9.0320      9.0183      9.0109      9.0084      9.0109      9.0183      9.0320      9.0551      9.0882    
  9.1278      9.1714      9.2238      9.2992      9.4223      9.6356      10.011      10.670      11.830      13.901    
  17.635      24.300      35.801      54.560      83.198      123.60      175.31      234.83      296.18      352.36    
  397.03      425.57      320.52      312.57      289.67      254.59      211.69      166.30      123.60      87.532    
  59.916      40.481      27.726      19.878      15.272      12.638      11.142      10.287      9.7973      9.5207    
  9.3677      9.2830      9.2334      9.1997      9.1714      9.1459      9.1259      9.1141      9.1094      9.1080    
  9.1078      9.1080      9.1094      9.1141      9.1259      9.1459      9.1714      9.1997      9.2334      9.2830    
  9.3677      9.5207      9.7973      10.287      11.142      12.638      15.272      19.878      27.726      40.481    
  59.916      87.532      123.60      166.30      211.69      254.59      289.67      312.57      218.50      212.74    
  196.29      171.51      141.88      111.28      83.198      59.916      42.231      29.759      21.556      16.454    
  13.400      11.609      10.566      9.9596      9.6127      9.4214      9.3213      9.2715      9.2470      9.2334    
  9.2238      9.2170      9.2151      9.2192      9.2271      9.2342      9.2369      9.2342      9.2271      9.2192    
  9.2151      9.2170      9.2238      9.2334      9.2470      9.2715      9.3213      9.4214      9.6127      9.9596    
  10.566      11.609      13.400      16.454      21.556      29.759      42.231      59.916      83.198      111.28    
  141.88      171.51      196.29      212.74      139.03      135.30      124.72      108.97      90.433      71.612    
  54.560      40.481      29.759      22.181      17.147      13.956      11.996      10.813      10.108      9.6948    
  9.4624      9.3413      9.2867      9.2694      9.2715      9.2830      9.2992      9.3193      9.3437      9.3709    
  9.3968      9.4155      9.4223      9.4155      9.3968      9.3709      9.3437      9.3193      9.2992      9.2830    
  9.2715      9.2694      9.2867      9.3413      9.4624      9.6948      10.108      10.813      11.996      13.956    
  17.147      22.181      29.759      40.481      54.560      71.612      90.433      108.97      124.72      135.30    
  84.368      82.190      76.036      66.940      56.310      45.560      35.801      27.726      21.556      17.147    
  14.161      12.217      10.987      10.223      9.7607      9.4920      9.3484      9.2845      9.2704      9.2867    
  9.3213      9.3677      9.4223      9.4832      9.5475      9.6102      9.6638      9.7003      9.7133      9.7003    
  9.6638      9.6102      9.5475      9.4832      9.4223      9.3677      9.3213      9.2867      9.2704      9.2845    
  9.3484      9.4920      9.7607      10.223      10.987      12.217      14.161      17.147      21.556      27.726    
  35.801      45.560      56.310      66.940      76.036      82.190      50.611      49.436      46.114      41.199    
  35.443      29.608      24.300      19.878      16.454      13.956      12.217      11.050      10.287      9.8039    
  9.5112      9.3480      9.2729      9.2579      9.2845      9.3413      9.4214      9.5207      9.6356      9.7612    
  9.8898      10.011      10.110      10.176      10.200      10.176      10.110      10.011      9.8898      9.7612    
  9.6356      9.5207      9.4214      9.3413      9.2845      9.2579      9.2729      9.3480      9.5112      9.8039    
  10.287      11.050      12.217      13.956      16.454      19.878      24.300      29.608      35.443      41.199    
  46.114      49.436      31.280      30.675      28.967      26.435      23.461      20.426      17.635      15.272    
  13.400      11.996      10.987      10.287      9.8190      9.5205      9.3450      9.2593      9.2403      9.2729    
  9.3484      9.4624      9.6127      9.7973      10.011      10.245      10.482      10.703      10.883      11.002    
  11.043      11.002      10.883      10.703      10.482      10.245      10.011      9.7973      9.6127      9.4624    
  9.3484      9.2729      9.2403      9.2593      9.3450      9.5205      9.8190      10.287      10.987      11.996    
  13.400      15.272      17.635      20.426      23.461      26.435      28.967      30.675      20.835      20.535    
  19.684      18.417      16.913      15.358      13.901      12.638      11.609      10.813      10.223      9.8039    
  9.5205      9.3435      9.2504      9.2255      9.2593      9.3480      9.4920      9.6948      9.9596      10.287    
  10.670      11.093      11.526      11.930      12.263      12.482      12.558      12.482      12.263      11.930    
  11.526      11.093      10.670      10.287      9.9596      9.6948      9.4920      9.3480      9.2593      9.2255    
  9.2504      9.3435      9.5205      9.8039      10.223      10.813      11.609      12.638      13.901      15.358    
  16.913      18.417      19.684      20.535      15.390      15.242      14.817      14.179      13.412      12.604    
  11.830      11.142      10.566      10.108      9.7607      9.5112      9.3450      9.2504      9.2198      9.2504    
  9.3450      9.5112      9.7607      10.108      10.566      11.142      11.830      12.604      13.412      14.179    
  14.817      15.242      15.390      15.242      14.817      14.179      13.412      12.604      11.830      11.142    
  10.566      10.108      9.7607      9.5112      9.3450      9.2504      9.2198      9.2504      9.3450      9.5112    
  9.7607      10.108      10.566      11.142      11.830      12.604      13.412      14.179      14.817      15.242    
  12.558      12.482      12.263      11.930      11.526      11.093      10.670      10.287      9.9596      9.6948    
  9.4920      9.3480      9.2593      9.2255      9.2504      9.3435      9.5205      9.8039      10.223      10.813    
  11.609      12.638      13.901      15.358      16.913      18.417      19.684      20.535      20.835      20.535    
  19.684      18.417      16.913      15.358      13.901      12.638      11.609      10.813      10.223      9.8039    
  9.5205      9.3435      9.2504      9.2255      9.2593      9.3480      9.4920      9.6948      9.9596      10.287    
  10.670      11.093      11.526      11.930      12.263      12.482      11.043      11.002      10.883      10.703    
  10.482      10.245      10.011      9.7973      9.6127      9.4624      9.3484      9.2729      9.2403      9.2593    
  9.3450      9.5205      9.8190      10.287      10.987      11.996      13.400      15.272      17.635      20.426    
  23.461      26.435      28.967      30.675      31.280      30.675      28.967      26.435      23.461      20.426    
  17.635      15.272      13.400      11.996      10.987      10.287      9.8190      9.5205      9.3450      9.2593    
  9.2403      9.2729      9.3484      9.4624      9.6127      9.7973      10.011      10.245      10.482      10.703    
  10.883      11.002      10.200      10.176      10.110      10.011      9.8898      9.7612      9.6356      9.5207    
  9.4214      9.3413      9.2845      9.2579      9.2729      9.3480      9.5112      9.8039      10.287      11.050    
  12.217      13.956      16.454      19.878      24.300      29.608      35.443      41.199      46.114      49.436    
  50.611      49.436      46.114      41.199      35.443      29.608      24.300      19.878      16.454      13.956    
  12.217      11.050      10.287      9.8039      9.5112      9.3480      9.2729      9.2579      9.2845      9.3413    
  9.4214      9.5207      9.6356      9.7612      9.8898      10.011      10.110      10.176      9.7133      9.7003    
  9.6638      9.6102      9.5475      9.4832      9.4223      9.3677      9.3213      9.2867      9.2704      9.2845    
  9.3484      9.4920      9.7607      10.223      10.987      12.217      14.161      17.147      21.556      27.726    
  35.801      45.560      56.310      66.940      76.036      82.190      84.368      82.190      76.036      66.940    
  56.310      45.560      35.801      27.726      21.556      17.147      14.161      12.217      10.987      10.223    
  9.7607      9.4920      9.3484      9.2845      9.2704      9.2867      9.3213      9.3677      9.4223      9.4832    
  9.5475      9.6102      9.6638      9.7003      9.4223      9.4155      9.3968      9.3709      9.3437      9.3193    
  9.2992      9.2830      9.2715      9.2694      9.2867      9.3413      9.4624      9.6948      10.108      10.813    
  11.996      13.956      17.147      22.181      29.759      40.481      54.560      71.612      90.433      108.97    
  124.72      135.30      139.03      135.30      124.72      108.97      90.433      71.612      54.560      40.481    
  29.759      22.181      17.147      13.956      11.996      10.813      10.108      9.6948      9.4624      9.3413    
  9.2867      9.2694      9.2715      9.2830      9.2992      9.3193      9.3437      9.3709      9.3968      9.4155    
  9.2369      9.2342      9.2271      9.2192      9.2151      9.2170      9.2238      9.2334      9.2470      9.2715    
  9.3213      9.4214      9.6127      9.9596      10.566      11.609      13.400      16.454      21.556      29.759    
  42.231      59.916      83.198      111.28      141.88      171.51      196.29      212.74      218.50      212.74    
  196.29      171.51      141.88      111.28      83.198      59.916      42.231      29.759      21.556      16.454    
  13.400      11.609      10.566      9.9596      9.6127      9.4214      9.3213      9.2715      9.2470      9.2334    
  9.2238      9.2170      9.2151      9.2192      9.2271      9.2342      9.1078      9.1080      9.1094      9.1141    
  9.1259      9.1459      9.1714      9.1997      9.2334      9.2830      9.3677      9.5207      9.7973      10.287    
  11.142      12.638      15.272      19.878      27.726      40.481      59.916      87.532      123.60      166.30    
  211.69      254.59      289.67      312.57      320.52      312.57      289.67      254.59      211.69      166.30    
  123.60      87.532      59.916      40.481      27.726      19.878      15.272      12.638      11.142      10.287    
  9.7973      9.5207      9.3677      9.2830      9.2334      9.1997      9.1714      9.1459      9.1259      9.1141    
  9.1094      9.1080      9.0084      9.0109      9.0183      9.0320      9.0551      9.0882      9.1278      9.1714    
  9.2238      9.2992      9.4223      9.6356      10.011      10.670      11.830      13.901      17.635      24.300    
  35.801      54.560      83.198      123.60      175.31      234.83      296.18      352.36      397.03      425.57    
  435.36      425.57      397.03      352.36      296.18      234.83      175.31      123.60      83.198      54.560    
  35.801      24.300      17.635      13.901      11.830      10.670      10.011      9.6356      9.4223      9.2992    
  9.2238      9.1714      9.1278      9.0882      9.0551      9.0320      9.0183      9.0109      8.9254      8.9294    
  8.9412      8.9616      8.9933      9.0368      9.0882      9.1459      9.2170      9.3193      9.4832      9.7612    
  10.245      11.093      12.604      15.358      20.426      29.608      45.560      71.612      111.28      166.30    
  234.83      311.17      387.07      454.05      505.52      537.54      548.36      537.54      505.52      454.05    
  387.07      311.17      234.83      166.30      111.28      71.612      45.560      29.608      20.426      15.358    
  12.604      11.093      10.245      9.7612      9.4832      9.3193      9.2170      9.1459      9.0882      9.0368    
  8.9933      8.9616      8.9412      8.9294      8.8553      8.8605      8.8758      8.9018      8.9410      8.9933    
  9.0551      9.1259      9.2151      9.3437      9.5475      9.8898      10.482      11.526      13.412      16.913    
  23.461      35.443      56.310      90.433      141.88      211.69      296.18      387.07      473.94      547.50    
  601.81      634.51      645.36      634.51      601.81      547.50      473.94      387.07      296.18      211.69    
  141.88      90.433      56.310      35.443      23.461      16.913      13.412      11.526      10.482      9.8898    
  9.5475      9.3437      9.2151      9.1259      9.0551      8.9933      8.9410      8.9018      8.8758      8.8605    
  8.8002      8.8064      8.8248      8.8560      8.9018      8.9616      9.0320      9.1141      9.2192      9.3709    
  9.6102      10.011      10.703      11.930      14.179      18.417      26.435      41.199      66.940      108.97    
  171.51      254.59      352.36      454.05      547.50      623.24      676.75      707.77      717.83      707.77    
  676.75      623.24      547.50      454.05      352.36      254.59      171.51      108.97      66.940      41.199    
  26.435      18.417      14.179      11.930      10.703      10.011      9.6102      9.3709      9.2192      9.1141    
  9.0320      8.9616      8.9018      8.8560      8.8248      8.8064      8.7621      8.7690      8.7896      8.8248    
  8.8758      8.9412      9.0183      9.1094      9.2271      9.3968      9.6638      10.110      10.883      12.263    
  14.817      19.684      28.967      46.114      76.036      124.72      196.29      289.67      397.03      505.52    
  601.81      676.75      727.43      755.65      764.57      755.65      727.43      676.75      601.81      505.52    
  397.03      289.67      196.29      124.72      76.036      46.114      28.967      19.684      14.817      12.263    
  10.883      10.110      9.6638      9.3968      9.2271      9.1094      9.0183      8.9412      8.8758      8.8248    
  8.7896      8.7690      8.7400      8.7472      8.7690      8.8064      8.8605      8.9294      9.0109      9.1080    
  9.2342      9.4155      9.7003      10.176      11.002      12.482      15.242      20.535      30.675      49.436    
  82.190      135.30      212.74      312.57      425.57      537.54      634.51      707.77      755.65      781.43    
  789.41      781.43      755.65      707.77      634.51      537.54      425.57      312.57      212.74      135.30    
  82.190      49.436      30.675      20.535      15.242      12.482      11.002      10.176      9.7003      9.4155    
  9.2342      9.1080      9.0109      8.9294      8.8605      8.8064      8.7690      8.7472      8.7327      8.7400    
  8.7621      8.8002      8.8553      8.9254      9.0084      9.1078      9.2369      9.4223      9.7133      10.200    
  11.043      12.558      15.390      20.835      31.280      50.611      84.368      139.03      218.50      320.52    
  435.36      548.36      645.36      717.83      764.57      789.41      797.03      789.41      764.57      717.83    
  645.36      548.36      435.36      320.52      218.50      139.03      84.368      50.611      31.280      20.835    
  15.390      12.558      11.043      10.200      9.7133      9.4223      9.2369      9.1078      9.0084      8.9254    
  8.8553      8.8002      8.7621      8.7400      8.7400      8.7472      8.7690      8.8064      8.8605      8.9294    
  9.0109      9.1080      9.2342      9.4155      9.7003      10.176      11.002      12.482      15.242      20.535    
  30.675      49.436      82.190      135.30      212.74      312.57      425.57      537.54      634.51      707.77    
  755.65      781.43      789.41      781.43      755.65      707.77      634.51      537.54      425.57      312.57    
  212.74      135.30      82.190      49.436      30.675      20.535      15.242      12.482      11.002      10.176    
  9.7003      9.4155      9.2342      9.1080      9.0109      8.9294      8.8605      8.8064      8.7690      8.7472    
  8.7621      8.7690      8.7896      8.8248      8.8758      8.9412      9.0183      9.1094      9.2271      9.3968    
  9.6638      10.110      10.883      12.263      14.817      19.684      28.967      46.114      76.036      124.72    
  196.29      289.67      397.03      505.52      601.81      676.75      727.43      755.65      764.57      755.65    
  727.43      676.75      601.81      505.52      397.03      289.67      196.29      124.72      76.036      46.114    
  28.967      19.684      14.817      12.263      10.883      10.110      9.6638      9.3968      9.2271      9.1094    
  9.0183      8.9412      8.8758      8.8248      8.7896      8.7690      8.8002      8.8064      8.8248      8.8560    
  8.9018      8.9616      9.0320      9.1141      9.2192      9.3709      9.6102      10.011      10.703      11.930    
  14.179      18.417      26.435      41.199      66.940      108.97      171.51      254.59      352.36      454.05    
  547.50      623.24      676.75      707.77      717.83      707.77      676.75      623.24      547.50      454.05    
  352.36      254.59      171.51      108.97      66.940      41.199      26.435      18.417      14.179      11.930    
  10.703      10.011      9.6102      9.3709      9.2192      9.1141      9.0320      8.9616      8.9018      8.8560    
  8.8248      8.8064      8.8553      8.8605      8.8758      8.9018      8.9410      8.9933      9.0551      9.1259    
  9.2151      9.3437      9.5475      9.8898      10.482      11.526      13.412      16.913      23.461      35.443    
  56.310      90.433      141.88      211.69      296.18      387.07      473.94      547.50      601.81      634.51    
  645.36      634.51      601.81      547.50      473.94      387.07      296.18      211.69      141.88      90.433    
  56.310      35.443      23.461      16.913      13.412      11.526      10.482      9.8898      9.5475      9.3437    
  9.2151      9.1259      9.0551      8.9933      8.9410      8.9018      8.8758      8.8605      8.9254      8.9294    
  8.9412      8.9616      8.9933      9.0368      9.0882      9.1459      9.2170      9.3193      9.4832      9.7612    
  10.245      11.093      12.604      15.358      20.426      29.608      45.560      71.612      111.28      166.30    
  234.83      311.17      387.07      454.05      505.52      537.54      548.36      537.54      505.52      454.05    
  387.07      311.17      234.83      166.30      111.28      71.612      45.560      29.608      20.426      15.358    
  12.604      11.093      10.245      9.7612      9.4832      9.3193      9.2170      9.1459      9.0882      9.0368    
  8.9933      8.9616      8.9412      8.9294      9.0084      9.0109      9.0183      9.0320      9.0551      9.0882    
  9.1278      9.1714      9.2238      9.2992      9.4223      9.6356      10.011      10.670      11.830      13.901    
  17.635      24.300      35.801      54.560      83.198      123.60      175.31      234.83      296.18      352.36    
  397.03      425.57      435.36      425.57      397.03      352.36      296.18      234.83      175.31      123.60    
  83.198      54.560      35.801      24.300      17.635      13.901      11.830      10.670      10.011      9.6356    
  9.4223      9.2992      9.2238      9.1714      9.1278      9.0882      9.0551      9.0320      9.0183      9.0109    
  9.1078      9.1080      9.1094      9.1141      9.1259      9.1459      9.1714      9.1997      9.2334      9.2830    
  9.3677      9.5207      9.7973      10.287      11.142      12.638      15.272      19.878      27.726      40.481    
  59.916      87.532      123.60      166.30      211.69      254.59      289.67      312.57      320.52      312.57    
  289.67      254.59      211.69      166.30      123.60      87.532      59.916      40.481      27.726      19.878    
  15.272      12.638      11.142      10.287      9.7973      9.5207      9.3677      9.2830      9.2334      9.1997    
  9.1714      9.1459      9.1259      9.1141      9.1094      9.1080      9.2369      9.2342      9.2271      9.2192    
  9.2151      9.2170      9.2238      9.2334      9.2470      9.2715      9.3213      9.4214      9.6127      9.9596    
  10.566      11.609      13.400      16.454      21.556      29.759      42.231      59.916      83.198      111.28    
  141.88      171.51      196.29      212.74      218.50      212.74      196.29      171.51      141.88      111.28    
  83.198      59.916      42.231      29.759      21.556      16.454      13.400      11.609      10.566      9.9596    
  9.6127      9.4214      9.3213      9.2715      9.2470      9.2334      9.2238      9.2170      9.2151      9.2192    
  9.2271      9.2342      9.4223      9.4155      9.3968      9.3709      9.3437      9.3193      9.2992      9.2830    
  9.2715      9.2694      9.2867      9.3413      9.4624      9.6948      10.108      10.813      11.996      13.956    
  17.147      22.181      29.759      40.481      54.560      71.612      90.433      108.97      124.72      135.30    
  139.03      135.30      124.72      108.97      90.433      71.612      54.560      40.481      29.759      22.181    
  17.147      13.956      11.996      10.813      10.108      9.6948      9.4624      9.3413      9.2867      9.2694    
  9.2715      9.2830      9.2992      9.3193      9.3437      9.3709      9.3968      9.4155      9.7133      9.7003    
  9.6638      9.6102      9.5475      9.4832      9.4223      9.3677      9.3213      9.2867      9.2704      9.2845    
  9.3484      9.4920      9.7607      10.223      10.987      12.217      14.161      17.147      21.556      27.726    
  35.801      45.560      56.310      66.940      76.036      82.190      84.368      82.190      76.036      66.940    
  56.310      45.560      35.801      27.726      21.556      17.147      14.161      12.217      10.987      10.223    
  9.7607      9.4920      9.3484      9.2845      9.2704      9.2867      9.3213      9.3677      9.4223      9.4832    
  9.5475      9.6102      9.6638      9.7003      10.200      10.176      10.110      10.011      9.8898      9.7612    
  9.6356      9.5207      9.4214      9.3413      9.2845      9.2579      9.2729      9.3480      9.5112      9.8039    
  10.287      11.050      12.217      13.956      16.454      19.878      24.300      29.608      35.443      41.199    
  46.114      49.436      50.611      49.436      46.114      41.199      35.443      29.608      24.300      19.878    
  16.454      13.956      12.217      11.050      10.287      9.8039      9.5112      9.3480      9.2729      9.2579    
  9.2845      9.3413      9.4214      9.5207      9.6356      9.7612      9.8898      10.011      10.110      10.176    
  11.043      11.002      10.883      10.703      10.482      10.245      10.011      9.7973      9.6127      9.4624    
  9.3484      9.2729      9.2403      9.2593      9.3450      9.5205      9.8190      10.287      10.987      11.996    
  13.400      15.272      17.635      20.426      23.461      26.435      28.967      30.675      31.280      30.675    
  28.967      26.435      23.461      20.426      17.635      15.272      13.400      11.996      10.987      10.287    
  9.8190      9.5205      9.3450      9.2593      9.2403      9.2729      9.3484      9.4624      9.6127      9.7973    
  10.011      10.245      10.482      10.703      10.883      11.002      12.558      12.482      12.263      11.930    
  11.526      11.093      10.670      10.287      9.9596      9.6948      9.4920      9.3480      9.2593      9.2255    
  9.2504      9.3435      9.5205      9.8039      10.223      10.813      11.609      12.638      13.901      15.358    
  16.913      18.417      19.684      20.535      20.835      20.535      19.684      18.417      16.913      15.358    
  13.901      12.638      11.609      10.813      10.223      9.8039      9.5205      9.3435      9.2504      9.2255    
  9.2593      9.3480      9.4920      9.6948      9.9596      10.287      10.670      11.093      11.526      11.930    
  12.263      12.482      15.390      15.242      14.817      14.179      13.412      12.604      11.830      11.142    
  10.566      10.108      9.7607      9.5112      9.3450      9.2504      9.2198      9.2504      9.3450      9.5112    
  9.7607      10.108      10.566      11.142      11.830      12.604      13.412      14.179      14.817      15.242    
  15.390      15.242      14.817      14.179      13.412      12.604      11.830      11.142      10.566      10.108    
  9.7607      9.5112      9.3450      9.2504      9.2198      9.2504      9.3450      9.5112      9.7607      10.108    
  10.566      11.142      11.830      12.604      13.412      14.179      14.817      15.242      20.835      20.535    
  19.684      18.417      16.913      15.358      13.901      12.638      11.609      10.813      10.223      9.8039    
  9.5205      9.3435      9.2504      9.2255      9.2593      9.3480      9.4920      9.6948      9.9596      10.287    
  10.670      11.093      11.526      11.930      12.263      12.482      12.558      12.482      12.263      11.930    
  11.526      11.093      10.670      10.287      9.9596      9.6948      9.4920      9.3480      9.2593      9.2255    