Sr                                      
   1.00000000000000     
     6.019690    0.000000    0.000000
     0.000000    6.019690    0.000000
     0.000000    0.000000    6.019690
   Sr
     4
Direct
  0.000000  0.000000  0.000000
  0.000000  0.500000  0.500000
  0.500000  0.000000  0.500000
  0.500000  0.500000  0.000000
 
   56   56   56
 0.79702877492E+03 0.78941191978E+03 0.76456822215E+03 0.71782753114E+03 0.64535919707E+03
 0.54836485364E+03 0.43536358320E+03 0.32051692422E+03 0.21849946661E+03 0.13903230670E+03
 0.84367573696E+02 0.50610831388E+02 0.31279581414E+02 0.20834542389E+02 0.15390444751E+02
 0.12558441766E+02 0.11043246213E+02 0.10199502658E+02 0.97132854889E+01 0.94223494608E+01
 0.92369203369E+01 0.91077999951E+01 0.90084469788E+01 0.89254192298E+01 0.88552594252E+01
 0.88002207611E+01 0.87620613129E+01 0.87399770797E+01 0.87327389354E+01 0.87399770797E+01
 0.87620613129E+01 0.88002207611E+01 0.88552594252E+01 0.89254192298E+01 0.90084469788E+01
 0.91077999951E+01 0.92369203369E+01 0.94223494608E+01 0.97132854889E+01 0.10199502658E+02
 0.11043246213E+02 0.12558441766E+02 0.15390444751E+02 0.20834542389E+02 0.31279581414E+02
 0.50610831388E+02 0.84367573696E+02 0.13903230670E+03 0.21849946661E+03 0.32051692422E+03
 0.43536358320E+03 0.54836485364E+03 0.64535919707E+03 0.71782753114E+03 0.76456822215E+03
 0.78941191978E+03 0.78941191978E+03 0.78143361109E+03 0.75564579778E+03 0.70777047374E+03
 0.63451179778E+03 0.53754426258E+03 0.42557497832E+03 0.31257127923E+03 0.21273965104E+03
 0.13530159602E+03 0.82189831301E+02 0.49435775402E+02 0.30675484735E+02 0.20534681505E+02
 0.15241507446E+02 0.12481826613E+02 0.11001809474E+02 0.10176322452E+02 0.97003240273E+01
 0.94155141726E+01 0.92341636194E+01 0.91080440443E+01 0.90108887760E+01 0.89294210496E+01
 0.88604729751E+01 0.88064402587E+01 0.87689616794E+01 0.87471629860E+01 0.87399770797E+01
 0.87471629860E+01 0.87689616794E+01 0.88064402587E+01 0.88604729751E+01 0.89294210496E+01
 0.90108887760E+01 0.91080440443E+01 0.92341636194E+01 0.94155141726E+01 0.97003240273E+01
 0.10176322452E+02 0.11001809474E+02 0.12481826613E+02 0.15241507446E+02 0.20534681505E+02
 0.30675484735E+02 0.49435775402E+02 0.82189831301E+02 0.13530159602E+03 0.21273965104E+03
 0.31257127923E+03 0.42557497832E+03 0.53754426258E+03 0.63451179778E+03 0.70777047374E+03
 0.75564579778E+03 0.78143361109E+03 0.76456822215E+03 0.75564579778E+03 0.72742938299E+03
 0.67675481507E+03 0.60180867407E+03 0.50552377063E+03 0.39703417681E+03 0.28967270418E+03
 0.19629023570E+03 0.12471796331E+03 0.76035865958E+02 0.46114277532E+02 0.28966949333E+02
 0.19684261907E+02 0.14817230533E+02 0.12262630750E+02 0.10883111494E+02 0.10110218037E+02
 0.96638355442E+01 0.93967804228E+01 0.92270964922E+01 0.91093608971E+01 0.90182593594E+01
 0.89411554262E+01 0.88757551508E+01 0.88248291714E+01 0.87896260033E+01 0.87689616794E+01
 0.87620613129E+01 0.87689616794E+01 0.87896260033E+01 0.88248291714E+01 0.88757551508E+01
 0.89411554262E+01 0.90182593594E+01 0.91093608971E+01 0.92270964922E+01 0.93967804228E+01
 0.96638355442E+01 0.10110218037E+02 0.10883111494E+02 0.12262630750E+02 0.14817230533E+02
 0.19684261907E+02 0.28966949333E+02 0.46114277532E+02 0.76035865958E+02 0.12471796331E+03
 0.19629023570E+03 0.28967270418E+03 0.39703417681E+03 0.50552377063E+03 0.60180867407E+03
 0.67675481507E+03 0.72742938299E+03 0.75564579778E+03 0.71782753114E+03 0.70777047374E+03
 0.67675481507E+03 0.62324494518E+03 0.54749632652E+03 0.45404972734E+03 0.35236233831E+03
 0.25459245575E+03 0.17151048827E+03 0.10896939824E+03 0.66939794226E+02 0.41199230203E+02
 0.26435187360E+02 0.18416724205E+02 0.14179171278E+02 0.11930181057E+02 0.10702609221E+02
 0.10010501593E+02 0.96101761864E+01 0.93708873793E+01 0.92192427297E+01 0.91141189641E+01
 0.90320031861E+01 0.89615543130E+01 0.89018182930E+01 0.88560318011E+01 0.88248291714E+01
 0.88064402587E+01 0.88002207611E+01 0.88064402587E+01 0.88248291714E+01 0.88560318011E+01
 0.89018182930E+01 0.89615543130E+01 0.90320031861E+01 0.91141189641E+01 0.92192427297E+01
 0.93708873793E+01 0.96101761864E+01 0.10010501593E+02 0.10702609221E+02 0.11930181057E+02
 0.14179171278E+02 0.18416724205E+02 0.26435187360E+02 0.41199230203E+02 0.66939794226E+02
 0.10896939824E+03 0.17151048827E+03 0.25459245575E+03 0.35236233831E+03 0.45404972734E+03
 0.54749632652E+03 0.62324494518E+03 0.67675481507E+03 0.70777047374E+03 0.64535919707E+03
 0.63451179778E+03 0.60180867407E+03 0.54749632652E+03 0.47393978999E+03 0.38706587836E+03
 0.29617739593E+03 0.21169430554E+03 0.14187622338E+03 0.90432836746E+02 0.56310115693E+02
 0.35443288929E+02 0.23460528901E+02 0.16913310487E+02 0.13412099800E+02 0.11525544864E+02
 0.10481984282E+02 0.98898315826E+01 0.95474960923E+01 0.93436536256E+01 0.92150702629E+01
 0.91258624459E+01 0.90551085768E+01 0.89933259140E+01 0.89410224388E+01 0.89018182930E+01
 0.88757551508E+01 0.88604729751E+01 0.88552594252E+01 0.88604729751E+01 0.88757551508E+01
 0.89018182930E+01 0.89410224388E+01 0.89933259140E+01 0.90551085768E+01 0.91258624459E+01
 0.92150702629E+01 0.93436536256E+01 0.95474960923E+01 0.98898315826E+01 0.10481984282E+02
 0.11525544864E+02 0.13412099800E+02 0.16913310487E+02 0.23460528901E+02 0.35443288929E+02
 0.56310115693E+02 0.90432836746E+02 0.14187622338E+03 0.21169430554E+03 0.29617739593E+03
 0.38706587836E+03 0.47393978999E+03 0.54749632652E+03 0.60180867407E+03 0.63451179778E+03
 0.54836485364E+03 0.53754426258E+03 0.50552377063E+03 0.45404972734E+03 0.38706587836E+03
 0.31117118206E+03 0.23482713230E+03 0.16629580044E+03 0.11128399030E+03 0.71612052797E+02
 0.45559748783E+02 0.29608362998E+02 0.20425704129E+02 0.15358276918E+02 0.12604286779E+02
 0.11092656639E+02 0.10244551513E+02 0.97612111924E+01 0.94832041543E+01 0.93193378703E+01
 0.92169793048E+01 0.91458568322E+01 0.90882300243E+01 0.90368070828E+01 0.89933259140E+01
 0.89615543130E+01 0.89411554262E+01 0.89294210496E+01 0.89254192298E+01 0.89294210496E+01
 0.89411554262E+01 0.89615543130E+01 0.89933259140E+01 0.90368070828E+01 0.90882300243E+01
 0.91458568322E+01 0.92169793048E+01 0.93193378703E+01 0.94832041543E+01 0.97612111924E+01
 0.10244551513E+02 0.11092656639E+02 0.12604286779E+02 0.15358276918E+02 0.20425704129E+02
 0.29608362998E+02 0.45559748783E+02 0.71612052797E+02 0.11128399030E+03 0.16629580044E+03
 0.23482713230E+03 0.31117118206E+03 0.38706587836E+03 0.45404972734E+03 0.50552377063E+03
 0.53754426258E+03 0.43536358320E+03 0.42557497832E+03 0.39703417681E+03 0.35236233831E+03
 0.29617739593E+03 0.23482713230E+03 0.17530862936E+03 0.12360379629E+03 0.83198447659E+02
 0.54559819472E+02 0.35801297564E+02 0.24300177086E+02 0.17634876649E+02 0.13901439593E+02
 0.11830497018E+02 0.10670302115E+02 0.10011104916E+02 0.96355780066E+01 0.94223456630E+01
 0.92992445242E+01 0.92238128993E+01 0.91713896477E+01 0.91278410162E+01 0.90882300243E+01
 0.90551085768E+01 0.90320031861E+01 0.90182593594E+01 0.90108887760E+01 0.90084469788E+01
 0.90108887760E+01 0.90182593594E+01 0.90320031861E+01 0.90551085768E+01 0.90882300243E+01
 0.91278410162E+01 0.91713896477E+01 0.92238128993E+01 0.92992445242E+01 0.94223456630E+01
 0.96355780066E+01 0.10011104916E+02 0.10670302115E+02 0.11830497018E+02 0.13901439593E+02
 0.17634876649E+02 0.24300177086E+02 0.35801297564E+02 0.54559819472E+02 0.83198447659E+02
 0.12360379629E+03 0.17530862936E+03 0.23482713230E+03 0.29617739593E+03 0.35236233831E+03
 0.39703417681E+03 0.42557497832E+03 0.32051692422E+03 0.31257127923E+03 0.28967270418E+03
 0.25459245575E+03 0.21169430554E+03 0.16629580044E+03 0.12360379629E+03 0.87532494898E+02
 0.59915685883E+02 0.40480837035E+02 0.27726123908E+02 0.19878080753E+02 0.15271673282E+02
 0.12638316344E+02 0.11142194919E+02 0.10287025473E+02 0.97972540952E+01 0.95206765580E+01
 0.93677015657E+01 0.92830167837E+01 0.92334299469E+01 0.91996779520E+01 0.91713896477E+01
 0.91458568322E+01 0.91258624459E+01 0.91141189641E+01 0.91093608971E+01 0.91080440443E+01
 0.91077999951E+01 0.91080440443E+01 0.91093608971E+01 0.91141189641E+01 0.91258624459E+01
 0.91458568322E+01 0.91713896477E+01 0.91996779520E+01 0.92334299469E+01 0.92830167837E+01
 0.93677015657E+01 0.95206765580E+01 0.97972540952E+01 0.10287025473E+02 0.11142194919E+02
 0.12638316344E+02 0.15271673282E+02 0.19878080753E+02 0.27726123908E+02 0.40480837035E+02
 0.59915685883E+02 0.87532494898E+02 0.12360379629E+03 0.16629580044E+03 0.21169430554E+03
 0.25459245575E+03 0.28967270418E+03 0.31257127923E+03 0.21849946661E+03 0.21273965104E+03
 0.19629023570E+03 0.17151048827E+03 0.14187622338E+03 0.11128399030E+03 0.83198447659E+02
 0.59915685883E+02 0.42231375975E+02 0.29759090092E+02 0.21555872105E+02 0.16453881905E+02
 0.13400189547E+02 0.11609444585E+02 0.10565926402E+02 0.99596408515E+01 0.96127115261E+01
 0.94214052023E+01 0.93213440485E+01 0.92715414031E+01 0.92470068621E+01 0.92334299469E+01
 0.92238128993E+01 0.92169793048E+01 0.92150702629E+01 0.92192427297E+01 0.92270964922E+01
 0.92341636194E+01 0.92369203369E+01 0.92341636194E+01 0.92270964922E+01 0.92192427297E+01
 0.92150702629E+01 0.92169793048E+01 0.92238128993E+01 0.92334299469E+01 0.92470068621E+01
 0.92715414031E+01 0.93213440485E+01 0.94214052023E+01 0.96127115261E+01 0.99596408515E+01
 0.10565926402E+02 0.11609444585E+02 0.13400189547E+02 0.16453881905E+02 0.21555872105E+02
 0.29759090092E+02 0.42231375975E+02 0.59915685883E+02 0.83198447659E+02 0.11128399030E+03
 0.14187622338E+03 0.17151048827E+03 0.19629023570E+03 0.21273965104E+03 0.13903230670E+03
 0.13530159602E+03 0.12471796331E+03 0.10896939824E+03 0.90432836746E+02 0.71612052797E+02
 0.54559819472E+02 0.40480837035E+02 0.29759090092E+02 0.22181105498E+02 0.17146908646E+02
 0.13956091106E+02 0.11995932643E+02 0.10813151322E+02 0.10107794680E+02 0.96947517041E+01
 0.94623516722E+01 0.93413018826E+01 0.92866932518E+01 0.92694088470E+01 0.92715414031E+01
 0.92830167837E+01 0.92992445242E+01 0.93193378703E+01 0.93436536256E+01 0.93708873793E+01
 0.93967804228E+01 0.94155141726E+01 0.94223494608E+01 0.94155141726E+01 0.93967804228E+01
 0.93708873793E+01 0.93436536256E+01 0.93193378703E+01 0.92992445242E+01 0.92830167837E+01
 0.92715414031E+01 0.92694088470E+01 0.92866932518E+01 0.93413018826E+01 0.94623516722E+01
 0.96947517041E+01 0.10107794680E+02 0.10813151322E+02 0.11995932643E+02 0.13956091106E+02
 0.17146908646E+02 0.22181105498E+02 0.29759090092E+02 0.40480837035E+02 0.54559819472E+02
 0.71612052797E+02 0.90432836746E+02 0.10896939824E+03 0.12471796331E+03 0.13530159602E+03
 0.84367573696E+02 0.82189831301E+02 0.76035865958E+02 0.66939794226E+02 0.56310115693E+02
 0.45559748783E+02 0.35801297564E+02 0.27726123908E+02 0.21555872105E+02 0.17146908646E+02
 0.14160961809E+02 0.12217469569E+02 0.10986691582E+02 0.10223145704E+02 0.97606571705E+01
 0.94920268311E+01 0.93483862637E+01 0.92845291920E+01 0.92704493080E+01 0.92866932518E+01
 0.93213440485E+01 0.93677015657E+01 0.94223456630E+01 0.94832041543E+01 0.95474960923E+01
 0.96101761864E+01 0.96638355442E+01 0.97003240273E+01 0.97132854889E+01 0.97003240273E+01
 0.96638355442E+01 0.96101761864E+01 0.95474960923E+01 0.94832041543E+01 0.94223456630E+01
 0.93677015657E+01 0.93213440485E+01 0.92866932518E+01 0.92704493080E+01 0.92845291920E+01
 0.93483862637E+01 0.94920268311E+01 0.97606571705E+01 0.10223145704E+02 0.10986691582E+02
 0.12217469569E+02 0.14160961809E+02 0.17146908646E+02 0.21555872105E+02 0.27726123908E+02
 0.35801297564E+02 0.45559748783E+02 0.56310115693E+02 0.66939794226E+02 0.76035865958E+02
 0.82189831301E+02 0.50610831388E+02 0.49435775402E+02 0.46114277532E+02 0.41199230203E+02
 0.35443288929E+02 0.29608362998E+02 0.24300177086E+02 0.19878080753E+02 0.16453881905E+02
 0.13956091106E+02 0.12217469569E+02 0.11049522507E+02 0.10287013274E+02 0.98038807486E+01
 0.95111508945E+01 0.93479730596E+01 0.92729038813E+01 0.92578976905E+01 0.92845291920E+01
 0.93413018826E+01 0.94214052023E+01 0.95206765580E+01 0.96355780066E+01 0.97612111924E+01
 0.98898315826E+01 0.10010501593E+02 0.10110218037E+02 0.10176322452E+02 0.10199502658E+02
 0.10176322452E+02 0.10110218037E+02 0.10010501593E+02 0.98898315826E+01 0.97612111924E+01
 0.96355780066E+01 0.95206765580E+01 0.94214052023E+01 0.93413018826E+01 0.92845291920E+01
 0.92578976905E+01 0.92729038813E+01 0.93479730596E+01 0.95111508945E+01 0.98038807486E+01
 0.10287013274E+02 0.11049522507E+02 0.12217469569E+02 0.13956091106E+02 0.16453881905E+02
 0.19878080753E+02 0.24300177086E+02 0.29608362998E+02 0.35443288929E+02 0.41199230203E+02
 0.46114277532E+02 0.49435775402E+02 0.31279581414E+02 0.30675484735E+02 0.28966949333E+02
 0.26435187360E+02 0.23460528901E+02 0.20425704129E+02 0.17634876649E+02 0.15271673282E+02
 0.13400189547E+02 0.11995932643E+02 0.10986691582E+02 0.10287013274E+02 0.98190214890E+01
 0.95204828891E+01 0.93450117430E+01 0.92593057910E+01 0.92402824205E+01 0.92729038813E+01
 0.93483862637E+01 0.94623516722E+01 0.96127115261E+01 0.97972540952E+01 0.10011104916E+02
 0.10244551513E+02 0.10481984282E+02 0.10702609221E+02 0.10883111494E+02 0.11001809474E+02
 0.11043246213E+02 0.11001809474E+02 0.10883111494E+02 0.10702609221E+02 0.10481984282E+02
 0.10244551513E+02 0.10011104916E+02 0.97972540952E+01 0.96127115261E+01 0.94623516722E+01
 0.93483862637E+01 0.92729038813E+01 0.92402824205E+01 0.92593057910E+01 0.93450117430E+01
 0.95204828891E+01 0.98190214890E+01 0.10287013274E+02 0.10986691582E+02 0.11995932643E+02
 0.13400189547E+02 0.15271673282E+02 0.17634876649E+02 0.20425704129E+02 0.23460528901E+02
 0.26435187360E+02 0.28966949333E+02 0.30675484735E+02 0.20834542389E+02 0.20534681505E+02
 0.19684261907E+02 0.18416724205E+02 0.16913310487E+02 0.15358276918E+02 0.13901439593E+02
 0.12638316344E+02 0.11609444585E+02 0.10813151322E+02 0.10223145704E+02 0.98038807486E+01
 0.95204828891E+01 0.93435107444E+01 0.92504146447E+01 0.92254867568E+01 0.92593057910E+01
 0.93479730596E+01 0.94920268311E+01 0.96947517041E+01 0.99596408515E+01 0.10287025473E+02
 0.10670302115E+02 0.11092656639E+02 0.11525544864E+02 0.11930181057E+02 0.12262630750E+02
 0.12481826613E+02 0.12558441766E+02 0.12481826613E+02 0.12262630750E+02 0.11930181057E+02
 0.11525544864E+02 0.11092656639E+02 0.10670302115E+02 0.10287025473E+02 0.99596408515E+01
 0.96947517041E+01 0.94920268311E+01 0.93479730596E+01 0.92593057910E+01 0.92254867568E+01
 0.92504146447E+01 0.93435107444E+01 0.95204828891E+01 0.98038807486E+01 0.10223145704E+02
 0.10813151322E+02 0.11609444585E+02 0.12638316344E+02 0.13901439593E+02 0.15358276918E+02
 0.16913310487E+02 0.18416724205E+02 0.19684261907E+02 0.20534681505E+02 0.15390444751E+02
 0.15241507446E+02 0.14817230533E+02 0.14179171278E+02 0.13412099800E+02 0.12604286779E+02
 0.11830497018E+02 0.11142194919E+02 0.10565926402E+02 0.10107794680E+02 0.97606571705E+01
 0.95111508945E+01 0.93450117430E+01 0.92504146447E+01 0.92197511988E+01 0.92504146447E+01
 0.93450117430E+01 0.95111508945E+01 0.97606571705E+01 0.10107794680E+02 0.10565926402E+02
 0.11142194919E+02 0.11830497018E+02 0.12604286779E+02 0.13412099800E+02 0.14179171278E+02
 0.14817230533E+02 0.15241507446E+02 0.15390444751E+02 0.15241507446E+02 0.14817230533E+02
 0.14179171278E+02 0.13412099800E+02 0.12604286779E+02 0.11830497018E+02 0.11142194919E+02
 0.10565926402E+02 0.10107794680E+02 0.97606571705E+01 0.95111508945E+01 0.93450117430E+01
 0.92504146447E+01 0.92197511988E+01 0.92504146447E+01 0.93450117430E+01 0.95111508945E+01
 0.97606571705E+01 0.10107794680E+02 0.10565926402E+02 0.11142194919E+02 0.11830497018E+02
 0.12604286779E+02 0.13412099800E+02 0.14179171278E+02 0.14817230533E+02 0.15241507446E+02
 0.12558441766E+02 0.12481826613E+02 0.12262630750E+02 0.11930181057E+02 0.11525544864E+02
 0.11092656639E+02 0.10670302115E+02 0.10287025473E+02 0.99596408515E+01 0.96947517041E+01
 0.94920268311E+01 0.93479730596E+01 0.92593057910E+01 0.92254867568E+01 0.92504146447E+01
 0.93435107444E+01 0.95204828891E+01 0.98038807486E+01 0.10223145704E+02 0.10813151322E+02
 0.11609444585E+02 0.12638316344E+02 0.13901439593E+02 0.15358276918E+02 0.16913310487E+02
 0.18416724205E+02 0.19684261907E+02 0.20534681505E+02 0.20834542389E+02 0.20534681505E+02
 0.19684261907E+02 0.18416724205E+02 0.16913310487E+02 0.15358276918E+02 0.13901439593E+02
 0.12638316344E+02 0.11609444585E+02 0.10813151322E+02 0.10223145704E+02 0.98038807486E+01
 0.95204828891E+01 0.93435107444E+01 0.92504146447E+01 0.92254867568E+01 0.92593057910E+01
 0.93479730596E+01 0.94920268311E+01 0.96947517041E+01 0.99596408515E+01 0.10287025473E+02
 0.10670302115E+02 0.11092656639E+02 0.11525544864E+02 0.11930181057E+02 0.12262630750E+02
 0.12481826613E+02 0.11043246213E+02 0.11001809474E+02 0.10883111494E+02 0.10702609221E+02
 0.10481984282E+02 0.10244551513E+02 0.10011104916E+02 0.97972540952E+01 0.96127115261E+01
 0.94623516722E+01 0.93483862637E+01 0.92729038813E+01 0.92402824205E+01 0.92593057910E+01
 0.93450117430E+01 0.95204828891E+01 0.98190214890E+01 0.10287013274E+02 0.10986691582E+02
 0.11995932643E+02 0.13400189547E+02 0.15271673282E+02 0.17634876649E+02 0.20425704129E+02
 0.23460528901E+02 0.26435187360E+02 0.28966949333E+02 0.30675484735E+02 0.31279581414E+02
 0.30675484735E+02 0.28966949333E+02 0.26435187360E+02 0.23460528901E+02 0.20425704129E+02
 0.17634876649E+02 0.15271673282E+02 0.13400189547E+02 0.11995932643E+02 0.10986691582E+02
 0.10287013274E+02 0.98190214890E+01 0.95204828891E+01 0.93450117430E+01 0.92593057910E+01
 0.92402824205E+01 0.92729038813E+01 0.93483862637E+01 0.94623516722E+01 0.96127115261E+01
 0.97972540952E+01 0.10011104916E+02 0.10244551513E+02 0.10481984282E+02 0.10702609221E+02
 0.10883111494E+02 0.11001809474E+02 0.10199502658E+02 0.10176322452E+02 0.10110218037E+02
 0.10010501593E+02 0.98898315826E+01 0.97612111924E+01 0.96355780066E+01 0.95206765580E+01
 0.94214052023E+01 0.93413018826E+01 0.92845291920E+01 0.92578976905E+01 0.92729038813E+01
 0.93479730596E+01 0.95111508945E+01 0.98038807486E+01 0.10287013274E+02 0.11049522507E+02
 0.12217469569E+02 0.13956091106E+02 0.16453881905E+02 0.19878080753E+02 0.24300177086E+02
 0.29608362998E+02 0.35443288929E+02 0.41199230203E+02 0.46114277532E+02 0.49435775402E+02
 0.50610831388E+02 0.49435775402E+02 0.46114277532E+02 0.41199230203E+02 0.35443288929E+02
 0.29608362998E+02 0.24300177086E+02 0.19878080753E+02 0.16453881905E+02 0.13956091106E+02
 0.12217469569E+02 0.11049522507E+02 0.10287013274E+02 0.98038807486E+01 0.95111508945E+01
 0.93479730596E+01 0.92729038813E+01 0.92578976905E+01 0.92845291920E+01 0.93413018826E+01
 0.94214052023E+01 0.95206765580E+01 0.96355780066E+01 0.97612111924E+01 0.98898315826E+01
 0.10010501593E+02 0.10110218037E+02 0.10176322452E+02 0.97132854889E+01 0.97003240273E+01
 0.96638355442E+01 0.96101761864E+01 0.95474960923E+01 0.94832041543E+01 0.94223456630E+01
 0.93677015657E+01 0.93213440485E+01 0.92866932518E+01 0.92704493080E+01 0.92845291920E+01
 0.93483862637E+01 0.94920268311E+01 0.97606571705E+01 0.10223145704E+02 0.10986691582E+02
 0.12217469569E+02 0.14160961809E+02 0.17146908646E+02 0.21555872105E+02 0.27726123908E+02
 0.35801297564E+02 0.45559748783E+02 0.56310115693E+02 0.66939794226E+02 0.76035865958E+02
 0.82189831301E+02 0.84367573696E+02 0.82189831301E+02 0.76035865958E+02 0.66939794226E+02
 0.56310115693E+02 0.45559748783E+02 0.35801297564E+02 0.27726123908E+02 0.21555872105E+02
 0.17146908646E+02 0.14160961809E+02 0.12217469569E+02 0.10986691582E+02 0.10223145704E+02
 0.97606571705E+01 0.94920268311E+01 0.93483862637E+01 0.92845291920E+01 0.92704493080E+01
 0.92866932518E+01 0.93213440485E+01 0.93677015657E+01 0.94223456630E+01 0.94832041543E+01
 0.95474960923E+01 0.96101761864E+01 0.96638355442E+01 0.97003240273E+01 0.94223494608E+01
 0.94155141726E+01 0.93967804228E+01 0.93708873793E+01 0.93436536256E+01 0.93193378703E+01
 0.92992445242E+01 0.92830167837E+01 0.92715414031E+01 0.92694088470E+01 0.92866932518E+01
 0.93413018826E+01 0.94623516722E+01 0.96947517041E+01 0.10107794680E+02 0.10813151322E+02
 0.11995932643E+02 0.13956091106E+02 0.17146908646E+02 0.22181105498E+02 0.29759090092E+02
 0.40480837035E+02 0.54559819472E+02 0.71612052797E+02 0.90432836746E+02 0.10896939824E+03
 0.12471796331E+03 0.13530159602E+03 0.13903230670E+03 0.13530159602E+03 0.12471796331E+03
 0.10896939824E+03 0.90432836746E+02 0.71612052797E+02 0.54559819472E+02 0.40480837035E+02
 0.29759090092E+02 0.22181105498E+02 0.17146908646E+02 0.13956091106E+02 0.11995932643E+02
 0.10813151322E+02 0.10107794680E+02 0.96947517041E+01 0.94623516722E+01 0.93413018826E+01
 0.92866932518E+01 0.92694088470E+01 0.92715414031E+01 0.92830167837E+01 0.92992445242E+01
 0.93193378703E+01 0.93436536256E+01 0.93708873793E+01 0.93967804228E+01 0.94155141726E+01
 0.92369203369E+01 0.92341636194E+01 0.92270964922E+01 0.92192427297E+01 0.92150702629E+01
 0.92169793048E+01 0.92238128993E+01 0.92334299469E+01 0.92470068621E+01 0.92715414031E+01
 0.93213440485E+01 0.94214052023E+01 0.96127115261E+01 0.99596408515E+01 0.10565926402E+02
 0.11609444585E+02 0.13400189547E+02 0.16453881905E+02 0.21555872105E+02 0.29759090092E+02
 0.42231375975E+02 0.59915685883E+02 0.83198447659E+02 0.11128399030E+03 0.14187622338E+03
 0.17151048827E+03 0.19629023570E+03 0.21273965104E+03 0.21849946661E+03 0.21273965104E+03
 0.19629023570E+03 0.17151048827E+03 0.14187622338E+03 0.11128399030E+03 0.83198447659E+02
 0.59915685883E+02 0.42231375975E+02 0.29759090092E+02 0.21555872105E+02 0.16453881905E+02
 0.13400189547E+02 0.11609444585E+02 0.10565926402E+02 0.99596408515E+01 0.96127115261E+01
 0.94214052023E+01 0.93213440485E+01 0.92715414031E+01 0.92470068621E+01 0.92334299469E+01
 0.92238128993E+01 0.92169793048E+01 0.92150702629E+01 0.92192427297E+01 0.92270964922E+01
 0.92341636194E+01 0.91077999951E+01 0.91080440443E+01 0.91093608971E+01 0.91141189641E+01
 0.91258624459E+01 0.91458568322E+01 0.91713896477E+01 0.91996779520E+01 0.92334299469E+01
 0.92830167837E+01 0.93677015657E+01 0.95206765580E+01 0.97972540952E+01 0.10287025473E+02
 0.11142194919E+02 0.12638316344E+02 0.15271673282E+02 0.19878080753E+02 0.27726123908E+02
 0.40480837035E+02 0.59915685883E+02 0.87532494898E+02 0.12360379629E+03 0.16629580044E+03
 0.21169430554E+03 0.25459245575E+03 0.28967270418E+03 0.31257127923E+03 0.32051692422E+03
 0.31257127923E+03 0.28967270418E+03 0.25459245575E+03 0.21169430554E+03 0.16629580044E+03
 0.12360379629E+03 0.87532494898E+02 0.59915685883E+02 0.40480837035E+02 0.27726123908E+02
 0.19878080753E+02 0.15271673282E+02 0.12638316344E+02 0.11142194919E+02 0.10287025473E+02
 0.97972540952E+01 0.95206765580E+01 0.93677015657E+01 0.92830167837E+01 0.92334299469E+01
 0.91996779520E+01 0.91713896477E+01 0.91458568322E+01 0.91258624459E+01 0.91141189641E+01
 0.91093608971E+01 0.91080440443E+01 0.90084469788E+01 0.90108887760E+01 0.90182593594E+01
 0.90320031861E+01 0.90551085768E+01 0.90882300243E+01 0.91278410162E+01 0.91713896477E+01
 0.92238128993E+01 0.92992445242E+01 0.94223456630E+01 0.96355780066E+01 0.10011104916E+02
 0.10670302115E+02 0.11830497018E+02 0.13901439593E+02 0.17634876649E+02 0.24300177086E+02
 0.35801297564E+02 0.54559819472E+02 0.83198447659E+02 0.12360379629E+03 0.17530862936E+03
 0.23482713230E+03 0.29617739593E+03 0.35236233831E+03 0.39703417681E+03 0.42557497832E+03
 0.43536358320E+03 0.42557497832E+03 0.39703417681E+03 0.35236233831E+03 0.29617739593E+03
 0.23482713230E+03 0.17530862936E+03 0.12360379629E+03 0.83198447659E+02 0.54559819472E+02
 0.35801297564E+02 0.24300177086E+02 0.17634876649E+02 0.13901439593E+02 0.11830497018E+02
 0.10670302115E+02 0.10011104916E+02 0.96355780066E+01 0.94223456630E+01 0.92992445242E+01
 0.92238128993E+01 0.91713896477E+01 0.91278410162E+01 0.90882300243E+01 0.90551085768E+01
 0.90320031861E+01 0.90182593594E+01 0.90108887760E+01 0.89254192298E+01 0.89294210496E+01
 0.89411554262E+01 0.89615543130E+01 0.89933259140E+01 0.90368070828E+01 0.90882300243E+01
 0.91458568322E+01 0.92169793048E+01 0.93193378703E+01 0.94832041543E+01 0.97612111924E+01
 0.10244551513E+02 0.11092656639E+02 0.12604286779E+02 0.15358276918E+02 0.20425704129E+02
 0.29608362998E+02 0.45559748783E+02 0.71612052797E+02 0.11128399030E+03 0.16629580044E+03
 0.23482713230E+03 0.31117118206E+03 0.38706587836E+03 0.45404972734E+03 0.50552377063E+03
 0.53754426258E+03 0.54836485364E+03 0.53754426258E+03 0.50552377063E+03 0.45404972734E+03
 0.38706587836E+03 0.31117118206E+03 0.23482713230E+03 0.16629580044E+03 0.11128399030E+03
 0.71612052797E+02 0.45559748783E+02 0.29608362998E+02 0.20425704129E+02 0.15358276918E+02
 0.12604286779E+02 0.11092656639E+02 0.10244551513E+02 0.97612111924E+01 0.94832041543E+01
 0.93193378703E+01 0.92169793048E+01 0.91458568322E+01 0.90882300243E+01 0.90368070828E+01
 0.89933259140E+01 0.89615543130E+01 0.89411554262E+01 0.89294210496E+01 0.88552594252E+01
 0.88604729751E+01 0.88757551508E+01 0.89018182930E+01 0.89410224388E+01 0.89933259140E+01
 0.90551085768E+01 0.91258624459E+01 0.92150702629E+01 0.93436536256E+01 0.95474960923E+01
 0.98898315826E+01 0.10481984282E+02 0.11525544864E+02 0.13412099800E+02 0.16913310487E+02
 0.23460528901E+02 0.35443288929E+02 0.56310115693E+02 0.90432836746E+02 0.14187622338E+03
 0.21169430554E+03 0.29617739593E+03 0.38706587836E+03 0.47393978999E+03 0.54749632652E+03
 0.60180867407E+03 0.63451179778E+03 0.64535919707E+03 0.63451179778E+03 0.60180867407E+03
 0.54749632652E+03 0.47393978999E+03 0.38706587836E+03 0.29617739593E+03 0.21169430554E+03
 0.14187622338E+03 0.90432836746E+02 0.56310115693E+02 0.35443288929E+02 0.23460528901E+02
 0.16913310487E+02 0.13412099800E+02 0.11525544864E+02 0.10481984282E+02 0.98898315826E+01
 0.95474960923E+01 0.93436536256E+01 0.92150702629E+01 0.91258624459E+01 0.90551085768E+01
 0.89933259140E+01 0.89410224388E+01 0.89018182930E+01 0.88757551508E+01 0.88604729751E+01
 0.88002207611E+01 0.88064402587E+01 0.88248291714E+01 0.88560318011E+01 0.89018182930E+01
 0.89615543130E+01 0.90320031861E+01 0.91141189641E+01 0.92192427297E+01 0.93708873793E+01
 0.96101761864E+01 0.10010501593E+02 0.10702609221E+02 0.11930181057E+02 0.14179171278E+02
 0.18416724205E+02 0.26435187360E+02 0.41199230203E+02 0.66939794226E+02 0.10896939824E+03
 0.17151048827E+03 0.25459245575E+03 0.35236233831E+03 0.45404972734E+03 0.54749632652E+03
 0.62324494518E+03 0.67675481507E+03 0.70777047374E+03 0.71782753114E+03 0.70777047374E+03
 0.67675481507E+03 0.62324494518E+03 0.54749632652E+03 0.45404972734E+03 0.35236233831E+03
 0.25459245575E+03 0.17151048827E+03 0.10896939824E+03 0.66939794226E+02 0.41199230203E+02
 0.26435187360E+02 0.18416724205E+02 0.14179171278E+02 0.11930181057E+02 0.10702609221E+02
 0.10010501593E+02 0.96101761864E+01 0.93708873793E+01 0.92192427297E+01 0.91141189641E+01
 0.90320031861E+01 0.89615543130E+01 0.89018182930E+01 0.88560318011E+01 0.88248291714E+01
 0.88064402587E+01 0.87620613129E+01 0.87689616794E+01 0.87896260033E+01 0.88248291714E+01
 0.88757551508E+01 0.89411554262E+01 0.90182593594E+01 0.91093608971E+01 0.92270964922E+01
 0.93967804228E+01 0.96638355442E+01 0.10110218037E+02 0.10883111494E+02 0.12262630750E+02
 0.14817230533E+02 0.19684261907E+02 0.28966949333E+02 0.46114277532E+02 0.76035865958E+02
 0.12471796331E+03 0.19629023570E+03 0.28967270418E+03 0.39703417681E+03 0.50552377063E+03
 0.60180867407E+03 0.67675481507E+03 0.72742938299E+03 0.75564579778E+03 0.76456822215E+03
 0.75564579778E+03 0.72742938299E+03 0.67675481507E+03 0.60180867407E+03 0.50552377063E+03
 0.39703417681E+03 0.28967270418E+03 0.19629023570E+03 0.12471796331E+03 0.76035865958E+02
 0.46114277532E+02 0.28966949333E+02 0.19684261907E+02 0.14817230533E+02 0.12262630750E+02
 0.10883111494E+02 0.10110218037E+02 0.96638355442E+01 0.93967804228E+01 0.92270964922E+01
 0.91093608971E+01 0.90182593594E+01 0.89411554262E+01 0.88757551508E+01 0.88248291714E+01
 0.87896260033E+01 0.87689616794E+01 0.87399770797E+01 0.87471629860E+01 0.87689616794E+01
 0.88064402587E+01 0.88604729751E+01 0.89294210496E+01 0.90108887760E+01 0.91080440443E+01
 0.92341636194E+01 0.94155141726E+01 0.97003240273E+01 0.10176322452E+02 0.11001809474E+02
 0.12481826613E+02 0.15241507446E+02 0.20534681505E+02 0.30675484735E+02 0.49435775402E+02
 0.82189831301E+02 0.13530159602E+03 0.21273965104E+03 0.31257127923E+03 0.42557497832E+03
 0.53754426258E+03 0.63451179778E+03 0.70777047374E+03 0.75564579778E+03 0.78143361109E+03
 0.78941191978E+03 0.78143361109E+03 0.75564579778E+03 0.70777047374E+03 0.63451179778E+03
 0.53754426258E+03 0.42557497832E+03 0.31257127923E+03 0.21273965104E+03 0.13530159602E+03
 0.82189831301E+02 0.49435775402E+02 0.30675484735E+02 0.20534681505E+02 0.15241507446E+02
 0.12481826613E+02 0.11001809474E+02 0.10176322452E+02 0.97003240273E+01 0.94155141726E+01
 0.92341636194E+01 0.91080440443E+01 0.90108887760E+01 0.89294210496E+01 0.88604729751E+01
 0.88064402587E+01 0.87689616794E+01 0.87471629860E+01 0.87327389354E+01 0.87399770797E+01
 0.87620613129E+01 0.88002207611E+01 0.88552594252E+01 0.89254192298E+01 0.90084469788E+01
 0.91077999951E+01 0.92369203369E+01 0.94223494608E+01 0.97132854889E+01 0.10199502658E+02
 0.11043246213E+02 0.12558441766E+02 0.15390444751E+02 0.20834542389E+02 0.31279581414E+02
 0.50610831388E+02 0.84367573696E+02 0.13903230670E+03 0.21849946661E+03 0.32051692422E+03
 0.43536358320E+03 0.54836485364E+03 0.64535919707E+03 0.71782753114E+03 0.76456822215E+03
 0.78941191978E+03 0.79702877492E+03 0.78941191978E+03 0.76456822215E+03 0.71782753114E+03
 0.64535919707E+03 0.54836485364E+03 0.43536358320E+03 0.32051692422E+03 0.21849946661E+03
 0.13903230670E+03 0.84367573696E+02 0.50610831388E+02 0.31279581414E+02 0.20834542389E+02
 0.15390444751E+02 0.12558441766E+02 0.11043246213E+02 0.10199502658E+02 0.97132854889E+01
 0.94223494608E+01 0.92369203369E+01 0.91077999951E+01 0.90084469788E+01 0.89254192298E+01
 0.88552594252E+01 0.88002207611E+01 0.87620613129E+01 0.87399770797E+01 0.87399770797E+01