   4   4   0   0
  0.5453338E+02  0.6019690E-09  0.6019690E-09  0.6019690E-09  0.5000000E-15
  1.000000000000000E-004
  CAR 
 Sr                                      
     12.58707935    -37.25526425  301      1.63094556      1.00000000
    -37.255  0.0000E+00  0.0000E+00
    -37.089  0.0000E+00  0.0000E+00
    -36.923  0.0000E+00  0.0000E+00
    -36.757  0.0000E+00  0.0000E+00
    -36.591  0.0000E+00  0.0000E+00
    -36.425  0.0000E+00  0.0000E+00
    -36.258  0.0000E+00  0.0000E+00
    -36.092  0.0000E+00  0.0000E+00
    -35.926  0.0000E+00  0.0000E+00
    -35.760  0.0000E+00  0.0000E+00
    -35.594  0.0000E+00  0.0000E+00
    -35.428  0.0000E+00  0.0000E+00
    -35.262  0.2497E-13  0.4148E-14
    -35.095  0.1798E-01  0.2987E-02
    -34.929  0.4341E+02  0.7215E+01
    -34.763  0.4727E+01  0.8000E+01
    -34.597  0.5781E-07  0.8000E+01
    -34.431  0.0000E+00  0.8000E+01
    -34.265  0.0000E+00  0.8000E+01
    -34.099  0.0000E+00  0.8000E+01
    -33.932  0.0000E+00  0.8000E+01
    -33.766  0.0000E+00  0.8000E+01
    -33.600  0.0000E+00  0.8000E+01
    -33.434  0.0000E+00  0.8000E+01
    -33.268  0.0000E+00  0.8000E+01
    -33.102  0.0000E+00  0.8000E+01
    -32.936  0.0000E+00  0.8000E+01
    -32.769  0.0000E+00  0.8000E+01
    -32.603  0.0000E+00  0.8000E+01
    -32.437  0.0000E+00  0.8000E+01
    -32.271  0.0000E+00  0.8000E+01
    -32.105  0.0000E+00  0.8000E+01
    -31.939  0.0000E+00  0.8000E+01
    -31.773  0.0000E+00  0.8000E+01
    -31.606  0.0000E+00  0.8000E+01
    -31.440  0.0000E+00  0.8000E+01
    -31.274  0.0000E+00  0.8000E+01
    -31.108  0.0000E+00  0.8000E+01
    -30.942  0.0000E+00  0.8000E+01
    -30.776  0.0000E+00  0.8000E+01
    -30.610  0.0000E+00  0.8000E+01
    -30.443  0.0000E+00  0.8000E+01
    -30.277  0.0000E+00  0.8000E+01
    -30.111  0.0000E+00  0.8000E+01
    -29.945  0.0000E+00  0.8000E+01
    -29.779  0.0000E+00  0.8000E+01
    -29.613  0.0000E+00  0.8000E+01
    -29.447  0.0000E+00  0.8000E+01
    -29.280  0.0000E+00  0.8000E+01
    -29.114  0.0000E+00  0.8000E+01
    -28.948  0.0000E+00  0.8000E+01
    -28.782  0.0000E+00  0.8000E+01
    -28.616  0.0000E+00  0.8000E+01
    -28.450  0.0000E+00  0.8000E+01
    -28.284  0.0000E+00  0.8000E+01
    -28.118  0.0000E+00  0.8000E+01
    -27.951  0.0000E+00  0.8000E+01
    -27.785  0.0000E+00  0.8000E+01
    -27.619  0.0000E+00  0.8000E+01
    -27.453  0.0000E+00  0.8000E+01
    -27.287  0.0000E+00  0.8000E+01
    -27.121  0.0000E+00  0.8000E+01
    -26.955  0.0000E+00  0.8000E+01
    -26.788  0.0000E+00  0.8000E+01
    -26.622  0.0000E+00  0.8000E+01
    -26.456  0.0000E+00  0.8000E+01
    -26.290  0.0000E+00  0.8000E+01
    -26.124  0.0000E+00  0.8000E+01
    -25.958  0.0000E+00  0.8000E+01
    -25.792  0.0000E+00  0.8000E+01
    -25.625  0.0000E+00  0.8000E+01
    -25.459  0.0000E+00  0.8000E+01
    -25.293  0.0000E+00  0.8000E+01
    -25.127  0.0000E+00  0.8000E+01
    -24.961  0.0000E+00  0.8000E+01
    -24.795  0.0000E+00  0.8000E+01
    -24.629  0.0000E+00  0.8000E+01
    -24.462  0.0000E+00  0.8000E+01
    -24.296  0.0000E+00  0.8000E+01
    -24.130  0.0000E+00  0.8000E+01
    -23.964  0.0000E+00  0.8000E+01
    -23.798  0.0000E+00  0.8000E+01
    -23.632  0.0000E+00  0.8000E+01
    -23.466  0.0000E+00  0.8000E+01
    -23.299  0.0000E+00  0.8000E+01
    -23.133  0.0000E+00  0.8000E+01
    -22.967  0.0000E+00  0.8000E+01
    -22.801  0.0000E+00  0.8000E+01
    -22.635  0.0000E+00  0.8000E+01
    -22.469  0.0000E+00  0.8000E+01
    -22.303  0.0000E+00  0.8000E+01
    -22.136  0.0000E+00  0.8000E+01
    -21.970  0.0000E+00  0.8000E+01
    -21.804  0.0000E+00  0.8000E+01
    -21.638  0.0000E+00  0.8000E+01
    -21.472  0.0000E+00  0.8000E+01
    -21.306  0.0000E+00  0.8000E+01
    -21.140  0.0000E+00  0.8000E+01
    -20.973  0.0000E+00  0.8000E+01
    -20.807  0.0000E+00  0.8000E+01
    -20.641  0.0000E+00  0.8000E+01
    -20.475  0.0000E+00  0.8000E+01
    -20.309  0.0000E+00  0.8000E+01
    -20.143  0.0000E+00  0.8000E+01
    -19.977  0.0000E+00  0.8000E+01
    -19.810  0.0000E+00  0.8000E+01
    -19.644  0.0000E+00  0.8000E+01
    -19.478  0.0000E+00  0.8000E+01
    -19.312  0.0000E+00  0.8000E+01
    -19.146  0.0000E+00  0.8000E+01
    -18.980  0.0000E+00  0.8000E+01
    -18.814  0.0000E+00  0.8000E+01
    -18.647  0.0000E+00  0.8000E+01
    -18.481  0.0000E+00  0.8000E+01
    -18.315  0.0000E+00  0.8000E+01
    -18.149  0.0000E+00  0.8000E+01
    -17.983  0.0000E+00  0.8000E+01
    -17.817  0.0000E+00  0.8000E+01
    -17.651  0.0000E+00  0.8000E+01
    -17.484  0.0000E+00  0.8000E+01
    -17.318  0.2132E-11  0.8000E+01
    -17.152  0.4876E-01  0.8008E+01
    -16.986  0.4879E+02  0.1611E+02
    -16.820  0.9505E+02  0.3191E+02
    -16.654  0.5632E+00  0.3200E+02
    -16.488  0.2877E-09  0.3200E+02
    -16.321  0.0000E+00  0.3200E+02
    -16.155  0.0000E+00  0.3200E+02
    -15.989  0.0000E+00  0.3200E+02
    -15.823  0.0000E+00  0.3200E+02
    -15.657  0.0000E+00  0.3200E+02
    -15.491  0.0000E+00  0.3200E+02
    -15.325  0.0000E+00  0.3200E+02
    -15.158  0.0000E+00  0.3200E+02
    -14.992  0.0000E+00  0.3200E+02
    -14.826  0.0000E+00  0.3200E+02
    -14.660  0.0000E+00  0.3200E+02
    -14.494  0.0000E+00  0.3200E+02
    -14.328  0.0000E+00  0.3200E+02
    -14.162  0.0000E+00  0.3200E+02
    -13.996  0.0000E+00  0.3200E+02
    -13.829  0.0000E+00  0.3200E+02
    -13.663  0.0000E+00  0.3200E+02
    -13.497  0.0000E+00  0.3200E+02
    -13.331  0.0000E+00  0.3200E+02
    -13.165  0.0000E+00  0.3200E+02
    -12.999  0.0000E+00  0.3200E+02
    -12.833  0.0000E+00  0.3200E+02
    -12.666  0.0000E+00  0.3200E+02
    -12.500  0.0000E+00  0.3200E+02
    -12.334  0.0000E+00  0.3200E+02
    -12.168  0.0000E+00  0.3200E+02
    -12.002  0.0000E+00  0.3200E+02
    -11.836  0.0000E+00  0.3200E+02
    -11.670  0.0000E+00  0.3200E+02
    -11.503  0.0000E+00  0.3200E+02
    -11.337  0.0000E+00  0.3200E+02
    -11.171  0.0000E+00  0.3200E+02
    -11.005  0.0000E+00  0.3200E+02
    -10.839  0.0000E+00  0.3200E+02
    -10.673  0.0000E+00  0.3200E+02
    -10.507  0.0000E+00  0.3200E+02
    -10.340  0.0000E+00  0.3200E+02
    -10.174  0.0000E+00  0.3200E+02
    -10.008  0.0000E+00  0.3200E+02
     -9.842  0.0000E+00  0.3200E+02
     -9.676  0.0000E+00  0.3200E+02
     -9.510  0.0000E+00  0.3200E+02
     -9.344  0.0000E+00  0.3200E+02
     -9.177  0.0000E+00  0.3200E+02
     -9.011  0.0000E+00  0.3200E+02
     -8.845  0.0000E+00  0.3200E+02
     -8.679  0.0000E+00  0.3200E+02
     -8.513  0.0000E+00  0.3200E+02
     -8.347  0.0000E+00  0.3200E+02
     -8.181  0.0000E+00  0.3200E+02
     -8.014  0.0000E+00  0.3200E+02
     -7.848  0.0000E+00  0.3200E+02
     -7.682  0.0000E+00  0.3200E+02
     -7.516  0.0000E+00  0.3200E+02
     -7.350  0.0000E+00  0.3200E+02
     -7.184  0.0000E+00  0.3200E+02
     -7.018  0.0000E+00  0.3200E+02
     -6.851  0.0000E+00  0.3200E+02
     -6.685  0.0000E+00  0.3200E+02
     -6.519  0.0000E+00  0.3200E+02
     -6.353  0.0000E+00  0.3200E+02
     -6.187  0.0000E+00  0.3200E+02
     -6.021  0.0000E+00  0.3200E+02
     -5.855  0.0000E+00  0.3200E+02
     -5.688  0.0000E+00  0.3200E+02
     -5.522  0.0000E+00  0.3200E+02
     -5.356  0.0000E+00  0.3200E+02
     -5.190  0.0000E+00  0.3200E+02
     -5.024  0.0000E+00  0.3200E+02
     -4.858  0.0000E+00  0.3200E+02
     -4.692  0.0000E+00  0.3200E+02
     -4.525  0.0000E+00  0.3200E+02
     -4.359  0.0000E+00  0.3200E+02
     -4.193  0.0000E+00  0.3200E+02
     -4.027  0.0000E+00  0.3200E+02
     -3.861  0.0000E+00  0.3200E+02
     -3.695  0.0000E+00  0.3200E+02
     -3.529  0.0000E+00  0.3200E+02
     -3.362  0.0000E+00  0.3200E+02
     -3.196  0.0000E+00  0.3200E+02
     -3.030  0.0000E+00  0.3200E+02
     -2.864  0.0000E+00  0.3200E+02
     -2.698  0.0000E+00  0.3200E+02
     -2.532  0.0000E+00  0.3200E+02
     -2.366  0.0000E+00  0.3200E+02
     -2.199  0.5336E-07  0.3200E+02
     -2.033  0.1800E-01  0.3200E+02
     -1.867  0.2874E+00  0.3205E+02
     -1.701  0.5150E+00  0.3214E+02
     -1.535  0.7305E+00  0.3226E+02
     -1.369  0.8359E+00  0.3240E+02
     -1.203  0.8997E+00  0.3255E+02
     -1.036  0.1226E+01  0.3275E+02
     -0.870  0.1163E+01  0.3294E+02
     -0.704  0.1404E+01  0.3318E+02
     -0.538  0.1669E+01  0.3345E+02
     -0.372  0.1537E+01  0.3371E+02
     -0.206  0.2173E+01  0.3407E+02
     -0.040  0.1753E+01  0.3436E+02
      0.126  0.2594E+01  0.3479E+02
      0.293  0.2318E+01  0.3518E+02
      0.459  0.3073E+01  0.3569E+02
      0.625  0.3442E+01  0.3626E+02
      0.791  0.3640E+01  0.3686E+02
      0.957  0.3808E+01  0.3750E+02
      1.123  0.3871E+01  0.3814E+02
      1.289  0.3754E+01  0.3876E+02
      1.456  0.3406E+01  0.3933E+02
      1.622  0.3665E+01  0.3994E+02
      1.788  0.6471E+01  0.4101E+02
      1.954  0.6974E+01  0.4217E+02
      2.120  0.1086E+02  0.4398E+02
      2.286  0.7713E+01  0.4526E+02
      2.452  0.8640E+01  0.4669E+02
      2.619  0.1039E+02  0.4842E+02
      2.785  0.8960E+01  0.4991E+02
      2.951  0.6495E+01  0.5099E+02
      3.117  0.5667E+01  0.5193E+02
      3.283  0.4728E+01  0.5272E+02
      3.449  0.4507E+01  0.5346E+02
      3.615  0.4147E+01  0.5415E+02
      3.782  0.3605E+01  0.5475E+02
      3.948  0.4645E+01  0.5552E+02
      4.114  0.8751E+01  0.5698E+02
      4.280  0.9622E+01  0.5858E+02
      4.446  0.1127E+02  0.6045E+02
      4.612  0.9264E+01  0.6199E+02
      4.778  0.6107E+01  0.6300E+02
      4.945  0.5436E+01  0.6391E+02
      5.111  0.5620E+01  0.6484E+02
      5.277  0.4553E+01  0.6560E+02
      5.443  0.5028E+01  0.6643E+02
      5.609  0.6373E+01  0.6749E+02
      5.775  0.7641E+01  0.6876E+02
      5.941  0.1180E+02  0.7072E+02
      6.108  0.9482E+01  0.7230E+02
      6.274  0.7996E+01  0.7362E+02
      6.440  0.8704E+01  0.7507E+02
      6.606  0.1239E+02  0.7713E+02
      6.772  0.1260E+02  0.7922E+02
      6.938  0.4876E+01  0.8003E+02
      7.104  0.8388E+01  0.8143E+02
      7.271  0.7184E+01  0.8262E+02
      7.437  0.6698E+01  0.8373E+02
      7.603  0.5192E+01  0.8459E+02
      7.769  0.5372E+01  0.8549E+02
      7.935  0.4287E+01  0.8620E+02
      8.101  0.3410E+01  0.8677E+02
      8.267  0.3325E+01  0.8732E+02
      8.434  0.3901E+01  0.8797E+02
      8.600  0.3726E+01  0.8859E+02
      8.766  0.5173E+01  0.8944E+02
      8.932  0.3920E+01  0.9010E+02
      9.098  0.4942E+01  0.9092E+02
      9.264  0.6261E+01  0.9196E+02
      9.430  0.6009E+01  0.9296E+02
      9.597  0.6081E+01  0.9397E+02
      9.763  0.6466E+01  0.9504E+02
      9.929  0.3325E+01  0.9559E+02
     10.095  0.1569E+01  0.9585E+02
     10.261  0.6773E+00  0.9597E+02
     10.427  0.2053E+00  0.9600E+02
     10.593  0.2329E-03  0.9600E+02
     10.760  0.0000E+00  0.9600E+02
     10.926  0.0000E+00  0.9600E+02
     11.092  0.0000E+00  0.9600E+02
     11.258  0.0000E+00  0.9600E+02
     11.424  0.0000E+00  0.9600E+02
     11.590  0.0000E+00  0.9600E+02
     11.756  0.0000E+00  0.9600E+02
     11.923  0.0000E+00  0.9600E+02
     12.089  0.0000E+00  0.9600E+02
     12.255  0.0000E+00  0.9600E+02
     12.421  0.0000E+00  0.9600E+02
     12.587  0.0000E+00  0.9600E+02
