    4    4    1    1
  0.5453338E+02  0.6019690E-09  0.6019690E-09  0.6019690E-09  0.5000000E-15
  1.000000000000000E-004
  CAR 
 Sr                                      
     40     84     48
 
  0.0000000E+00  0.0000000E+00  0.0000000E+00  0.5787037E-03
      1        -34.989703   1.000000
      2        -34.970492   1.000000
      3        -34.970492   1.000000
      4        -34.970492   1.000000
      5        -17.064492   1.000000
      6        -17.064492   1.000000
      7        -17.064492   1.000000
      8        -16.948233   1.000000
      9        -16.948233   1.000000
     10        -16.948233   1.000000
     11        -16.948233   1.000000
     12        -16.948233   1.000000
     13        -16.948233   1.000000
     14        -16.874692   1.000000
     15        -16.874692   1.000000
     16        -16.874692   1.000000
     17         -2.046396   1.000000
     18          0.961842   1.000000
     19          0.961842   1.000000
     20          0.961842   1.000000
     21          1.951118   0.000000
     22          1.951118   0.000000
     23          1.951118   0.000000
     24          2.685792   0.000000
     25          2.685792   0.000000
     26          2.685792   0.000000
     27          3.965969   0.000000
     28          3.965969   0.000000
     29          3.965969   0.000000
     30          5.445327   0.000000
     31          5.445327   0.000000
     32          6.503434   0.000000
     33          6.503434   0.000000
     34          6.503434   0.000000
     35          6.802884   0.000000
     36          6.802884   0.000000
     37          6.802884   0.000000
     38          6.802884   0.000000
     39          6.802884   0.000000
     40          6.802884   0.000000
     41          6.965595   0.000000
     42          6.965595   0.000000
     43          6.965595   0.000000
     44          6.965595   0.000000
     45          6.965595   0.000000
     46          6.965595   0.000000
     47          7.518100   0.000000
     48          7.518100   0.000000
 
  0.8333333E-01 -0.1462388E-32  0.0000000E+00  0.3472222E-02
      1        -34.989377   1.000000
      2        -34.970819   1.000000
      3        -34.970492   1.000000
      4        -34.970492   1.000000
      5        -17.062538   1.000000
      6        -17.062538   1.000000
      7        -17.061458   1.000000
      8        -16.950231   1.000000
      9        -16.950231   1.000000
     10        -16.948402   1.000000
     11        -16.948402   1.000000
     12        -16.946988   1.000000
     13        -16.946988   1.000000
     14        -16.878292   1.000000
     15        -16.876060   1.000000
     16        -16.876060   1.000000
     17         -2.008614   1.000000
     18          0.891964   1.000000
     19          0.995925   1.000000
     20          0.995925   1.000000
     21          1.959640   0.000000
     22          1.959640   0.000000
     23          1.973911   0.000000
     24          2.667611   0.000000
     25          2.667611   0.000000
     26          2.698227   0.000000
     27          3.906350   0.000000
     28          3.984131   0.000000
     29          3.984131   0.000000
     30          5.376362   0.000000
     31          5.460108   0.000000
     32          6.132580   0.000000
     33          6.132580   0.000000
     34          6.394836   0.000000
     35          6.394836   0.000000
     36          6.481024   0.000000
     37          6.803241   0.000000
     38          6.803241   0.000000
     39          6.824873   0.000000
     40          6.824873   0.000000
     41          6.972850   0.000000
     42          6.972850   0.000000
     43          6.980769   0.000000
     44          6.980769   0.000000
     45          7.413279   0.000000
     46          7.413279   0.000000
     47          7.663320   0.000000
     48          7.871031   0.000000
 
  0.1666667E+00  0.7546190E-33  0.0000000E+00  0.3472222E-02
      1        -34.988420   1.000000
      2        -34.971778   1.000000
      3        -34.970496   1.000000
      4        -34.970496   1.000000
      5        -17.056819   1.000000
      6        -17.056819   1.000000
      7        -17.052653   1.000000
      8        -16.956169   1.000000
      9        -16.956169   1.000000
     10        -16.948877   1.000000
     11        -16.948877   1.000000
     12        -16.943319   1.000000
     13        -16.943319   1.000000
     14        -16.888379   1.000000
     15        -16.879745   1.000000
     16        -16.879745   1.000000
     17         -1.896178   1.000000
     18          0.687856   1.000000
     19          1.095170   1.000000
     20          1.095170   1.000000
     21          1.985215   0.000000
     22          1.985215   0.000000
     23          2.041951   0.000000
     24          2.615982   0.000000
     25          2.615982   0.000000
     26          2.755522   0.000000
     27          3.743268   0.000000
     28          4.039052   0.000000
     29          4.039052   0.000000
     30          5.178478   0.000000
     31          5.504175   0.000000
     32          5.517500   0.000000
     33          5.517500   0.000000
     34          5.957995   0.000000
     35          5.957995   0.000000
     36          6.416545   0.000000
     37          6.804208   0.000000
     38          6.804208   0.000000
     39          6.885602   0.000000
     40          6.885602   0.000000
     41          6.983530   0.000000
     42          6.983530   0.000000
     43          7.022405   0.000000
     44          7.022405   0.000000
     45          7.967099   0.000000
     46          7.967099   0.000000
     47          8.072397   0.000000
     48          8.428508   0.000000
 
  0.2500000E+00 -0.4759154E-32  0.0000000E+00  0.3472222E-02
      1        -34.986895   1.000000
      2        -34.973303   1.000000
      3        -34.970487   1.000000
      4        -34.970487   1.000000
      5        -17.047643   1.000000
      6        -17.047643   1.000000
      7        -17.038304   1.000000
      8        -16.965503   1.000000
      9        -16.965503   1.000000
     10        -16.949287   1.000000
     11        -16.949287   1.000000
     12        -16.937527   1.000000
     13        -16.937527   1.000000
     14        -16.904308   1.000000
     15        -16.885638   1.000000
     16        -16.885638   1.000000
     17         -1.712062   1.000000
     18          0.374979   1.000000
     19          1.249080   1.000000
     20          1.249080   1.000000
     21          2.027887   0.000000
     22          2.027887   0.000000
     23          2.154133   0.000000
     24          2.538600   0.000000
     25          2.538600   0.000000
     26          2.887595   0.000000
     27          3.512244   0.000000
     28          4.131656   0.000000
     29          4.131656   0.000000
     30          4.877414   0.000000
     31          4.915738   0.000000
     32          4.915738   0.000000
     33          5.563656   0.000000
     34          5.563656   0.000000
     35          5.575755   0.000000
     36          6.317435   0.000000
     37          6.805559   0.000000
     38          6.805559   0.000000
     39          6.970764   0.000000
     40          6.970764   0.000000
     41          6.996922   0.000000
     42          6.996922   0.000000
     43          7.079419   0.000000
     44          7.079419   0.000000
     45          8.549245   0.000000
     46          8.549245   0.000000
     47          8.686929   0.000000
     48          8.902514   0.000000
 
  0.3333333E+00 -0.2170156E-32  0.0000000E+00  0.3472222E-02
      1        -34.984903   1.000000
      2        -34.975292   1.000000
      3        -34.970480   1.000000
      4        -34.970480   1.000000
      5        -17.035680   1.000000
      6        -17.035680   1.000000
      7        -17.019571   1.000000
      8        -16.977594   1.000000
      9        -16.977594   1.000000
     10        -16.949823   1.000000
     11        -16.949823   1.000000
     12        -16.930036   1.000000
     13        -16.930036   1.000000
     14        -16.924796   1.000000
     15        -16.893329   1.000000
     16        -16.893329   1.000000
     17         -1.461382   1.000000
     18         -0.003149   1.000000
     19          1.433878   1.000000
     20          1.433878   1.000000
     21          2.087228   0.000000
     22          2.087228   0.000000
     23          2.308440   0.000000
     24          2.445431   0.000000
     25          2.445431   0.000000
     26          3.102314   0.000000
     27          3.249335   0.000000
     28          4.263430   0.000000
     29          4.263430   0.000000
     30          4.396616   0.000000
     31          4.396616   0.000000
     32          4.510883   0.000000
     33          5.214236   0.000000
     34          5.214236   0.000000
     35          5.671940   0.000000
     36          6.194157   0.000000
     37          6.806936   0.000000
     38          6.806936   0.000000
     39          7.010319   0.000000
     40          7.010319   0.000000
     41          7.060082   0.000000
     42          7.060082   0.000000
     43          7.135110   0.000000
     44          7.135110   0.000000
     45          9.144024   0.000000
     46          9.144024   0.000000
     47          9.222219   0.000000
     48          9.222219   0.000000
 
  0.4166667E+00 -0.1133139E-31  0.0000000E+00  0.3472222E-02
      1        -34.982587   1.000000
      2        -34.977610   1.000000
      3        -34.970479   1.000000
      4        -34.970479   1.000000
      5        -17.021770   1.000000
      6        -17.021770   1.000000
      7        -16.997267   1.000000
      8        -16.991725   1.000000
      9        -16.991725   1.000000
     10        -16.950072   1.000000
     11        -16.950072   1.000000
     12        -16.948276   1.000000
     13        -16.921204   1.000000
     14        -16.921204   1.000000
     15        -16.902245   1.000000
     16        -16.902245   1.000000
     17         -1.151726   1.000000
     18         -0.403595   1.000000
     19          1.600935   0.802014
     20          1.600935   0.802014
     21          2.162032   0.000000
     22          2.162032   0.000000
     23          2.346368   0.000000
     24          2.346368   0.000000
     25          2.501674   0.000000
     26          2.982001   0.000000
     27          3.390673   0.000000
     28          4.024637   0.000000
     29          4.024637   0.000000
     30          4.119026   0.000000
     31          4.436045   0.000000
     32          4.436045   0.000000
     33          4.910249   0.000000
     34          4.910249   0.000000
     35          5.788545   0.000000
     36          6.058048   0.000000
     37          6.807880   0.000000
     38          6.807880   0.000000
     39          7.020174   0.000000
     40          7.020174   0.000000
     41          7.132642   0.000000
     42          7.132642   0.000000
     43          7.170839   0.000000
     44          7.170839   0.000000
     45          9.391708   0.000000
     46          9.391708   0.000000
     47          9.726600   0.000000
     48          9.726600   0.000000
 
  0.5000000E+00 -0.9518308E-32  0.0000000E+00  0.1736111E-02
      1        -34.980090   1.000000
      2        -34.980090   1.000000
      3        -34.970477   1.000000
      4        -34.970477   1.000000
      5        -17.006811   1.000000
      6        -17.006811   1.000000
      7        -17.006811   1.000000
      8        -17.006811   1.000000
      9        -16.972928   1.000000
     10        -16.972928   1.000000
     11        -16.950282   1.000000
     12        -16.950282   1.000000
     13        -16.911695   1.000000
     14        -16.911695   1.000000
     15        -16.911695   1.000000
     16        -16.911695   1.000000
     17         -0.793944   1.000000
     18         -0.793944   1.000000
     19          1.672618   0.119262
     20          1.672618   0.119262
     21          2.249803   0.000000
     22          2.249803   0.000000
     23          2.249803   0.000000
     24          2.249803   0.000000
     25          2.728790   0.000000
     26          2.728790   0.000000
     27          3.736553   0.000000
     28          3.736553   0.000000
     29          3.883957   0.000000
     30          3.883957   0.000000
     31          4.651209   0.000000
     32          4.651209   0.000000
     33          4.651209   0.000000
     34          4.651209   0.000000
     35          5.919766   0.000000
     36          5.919766   0.000000
     37          6.808214   0.000000
     38          6.808214   0.000000
     39          7.023820   0.000000
     40          7.023820   0.000000
     41          7.171740   0.000000
     42          7.171740   0.000000
     43          7.171740   0.000000
     44          7.171740   0.000000
     45          9.442946   0.000000
     46          9.442946   0.000000
     47         10.253573   0.000000
     48         10.253574   0.000000
 
  0.8333333E-01  0.8333333E-01  0.0000000E+00  0.6944444E-02
      1        -34.989057   1.000000
      2        -34.970811   1.000000
      3        -34.970811   1.000000
      4        -34.970499   1.000000
      5        -17.060605   1.000000
      6        -17.059670   1.000000
      7        -17.059670   1.000000
      8        -16.954311   1.000000
      9        -16.948970   1.000000
     10        -16.948970   1.000000
     11        -16.947035   1.000000
     12        -16.947035   1.000000
     13        -16.946432   1.000000
     14        -16.883495   1.000000
     15        -16.877323   1.000000
     16        -16.875459   1.000000
     17         -1.971023   1.000000
     18          0.925550   1.000000
     19          0.925550   1.000000
     20          1.029676   1.000000
     21          1.964905   0.000000
     22          1.981951   0.000000
     23          1.981951   0.000000
     24          2.650617   0.000000
     25          2.679554   0.000000
     26          2.679554   0.000000
     27          3.847494   0.000000
     28          3.998836   0.000000
     29          4.005214   0.000000
     30          5.353278   0.000000
     31          5.435314   0.000000
     32          6.029933   0.000000
     33          6.029933   0.000000
     34          6.038890   0.000000
     35          6.403523   0.000000
     36          6.403523   0.000000
     37          6.436160   0.000000
     38          6.687051   0.000000
     39          6.687052   0.000000
     40          6.744187   0.000000
     41          6.906037   0.000000
     42          7.181013   0.000000
     43          7.181013   0.000000
     44          7.419905   0.000000
     45          7.419905   0.000000
     46          7.515915   0.000000
     47          7.974346   0.000000
     48          8.064805   0.000000
 
  0.1666667E+00  0.8333333E-01  0.0000000E+00  0.1388889E-01
      1        -34.988112   1.000000
      2        -34.971757   1.000000
      3        -34.970795   1.000000
      4        -34.970512   1.000000
      5        -17.054867   1.000000
      6        -17.054513   1.000000
      7        -17.051401   1.000000
      8        -16.961390   1.000000
      9        -16.954853   1.000000
     10        -16.947238   1.000000
     11        -16.945314   1.000000
     12        -16.945222   1.000000
     13        -16.943200   1.000000
     14        -16.894568   1.000000
     15        -16.881084   1.000000
     16        -16.877834   1.000000
     17         -1.859223   1.000000
     18          0.720096   1.000000
     19          1.023517   1.000000
     20          1.128040   1.000000
     21          1.980432   0.000000
     22          2.006101   0.000000
     23          2.048499   0.000000
     24          2.602282   0.000000
     25          2.626040   0.000000
     26          2.736022   0.000000
     27          3.692135   0.000000
     28          4.042523   0.000000
     29          4.061484   0.000000
     30          5.181905   0.000000
     31          5.470610   0.000000
     32          5.496638   0.000000
     33          5.536605   0.000000
     34          5.771489   0.000000
     35          5.969314   0.000000
     36          6.336853   0.000000
     37          6.427530   0.000000
     38          6.542239   0.000000
     39          6.694154   0.000000
     40          6.841260   0.000000
     41          7.017436   0.000000
     42          7.043775   0.000000
     43          7.437787   0.000000
     44          7.576582   0.000000
     45          7.685311   0.000000
     46          7.970358   0.000000
     47          8.414186   0.000000
     48          8.529619   0.000000
 
  0.2500000E+00  0.8333333E-01  0.0000000E+00  0.1388889E-01
      1        -34.986613   1.000000
      2        -34.973254   1.000000
      3        -34.970764   1.000000
      4        -34.970532   1.000000
      5        -17.046222   1.000000
      6        -17.045790   1.000000
      7        -17.037922   1.000000
      8        -16.970891   1.000000
      9        -16.964145   1.000000
     10        -16.947348   1.000000
     11        -16.945088   1.000000
     12        -16.939475   1.000000
     13        -16.937031   1.000000
     14        -16.910537   1.000000
     15        -16.887038   1.000000
     16        -16.883160   1.000000
     17         -1.676111   1.000000
     18          0.405851   1.000000
     19          1.176324   1.000000
     20          1.280685   1.000000
     21          2.005226   0.000000
     22          2.046428   0.000000
     23          2.158161   0.000000
     24          2.529592   0.000000
     25          2.543910   0.000000
     26          2.867086   0.000000
     27          3.472259   0.000000
     28          4.111580   0.000000
     29          4.153879   0.000000
     30          4.902579   0.000000
     31          4.946599   0.000000
     32          4.956239   0.000000
     33          5.460279   0.000000
     34          5.551737   0.000000
     35          5.577057   0.000000
     36          6.396673   0.000000
     37          6.405324   0.000000
     38          6.461624   0.000000
     39          6.656887   0.000000
     40          6.864799   0.000000
     41          7.098968   0.000000
     42          7.141123   0.000000
     43          7.460601   0.000000
     44          7.698341   0.000000
     45          8.109893   0.000000
     46          8.549300   0.000000
     47          8.889945   0.000000
     48          9.028566   0.000000
 
  0.3333333E+00  0.8333333E-01  0.0000000E+00  0.1388889E-01
      1        -34.984654   1.000000
      2        -34.975207   1.000000
      3        -34.970727   1.000000
      4        -34.970562   1.000000
      5        -17.035399   1.000000
      6        -17.033900   1.000000
      7        -17.020235   1.000000
      8        -16.982406   1.000000
      9        -16.976213   1.000000
     10        -16.947385   1.000000
     11        -16.945507   1.000000
     12        -16.931829   1.000000
     13        -16.930351   1.000000
     14        -16.929025   1.000000
     15        -16.894785   1.000000
     16        -16.890717   1.000000
     17         -1.426695   1.000000
     18          0.027206   1.000000
     19          1.363502   1.000000
     20          1.463325   0.999999
     21          2.038638   0.000000
     22          2.102603   0.000000
     23          2.308820   0.000000
     24          2.439502   0.000000
     25          2.441792   0.000000
     26          3.079592   0.000000
     27          3.220519   0.000000
     28          4.175374   0.000000
     29          4.284791   0.000000
     30          4.459117   0.000000
     31          4.463710   0.000000
     32          4.596508   0.000000
     33          5.157519   0.000000
     34          5.229573   0.000000
     35          5.662359   0.000000
     36          6.258100   0.000000
     37          6.486904   0.000000
     38          6.499505   0.000000
     39          6.626703   0.000000
     40          6.814852   0.000000
     41          7.246455   0.000000
     42          7.262997   0.000000
     43          7.477429   0.000000
     44          7.671769   0.000000
     45          8.718493   0.000000
     46          9.140716   0.000000
     47          9.230394   0.000000
     48          9.315789   0.000000
 
  0.4166667E+00  0.8333333E-01  0.0000000E+00  0.1388889E-01
      1        -34.982378   1.000000
      2        -34.977487   1.000000
      3        -34.970688   1.000000
      4        -34.970597   1.000000
      5        -17.022768   1.000000
      6        -17.020038   1.000000
      7        -16.999199   1.000000
      8        -16.995356   1.000000
      9        -16.990202   1.000000
     10        -16.952727   1.000000
     11        -16.947184   1.000000
     12        -16.946088   1.000000
     13        -16.922943   1.000000
     14        -16.919702   1.000000
     15        -16.903756   1.000000
     16        -16.899772   1.000000
     17         -1.118462   1.000000
     18         -0.372831   1.000000
     19          1.545423   0.992217
     20          1.619649   0.625331
     21          2.089673   0.000000
     22          2.173493   0.000000
     23          2.316892   0.000000
     24          2.348158   0.000000
     25          2.497096   0.000000
     26          2.962978   0.000000
     27          3.362639   0.000000
     28          4.031110   0.000000
     29          4.112726   0.000000
     30          4.118921   0.000000
     31          4.456206   0.000000
     32          4.509597   0.000000
     33          4.887274   0.000000
     34          4.927318   0.000000
     35          5.795768   0.000000
     36          6.102024   0.000000
     37          6.536226   0.000000
     38          6.583826   0.000000
     39          6.598775   0.000000
     40          6.751454   0.000000
     41          7.366744   0.000000
     42          7.393765   0.000000
     43          7.474315   0.000000
     44          7.612653   0.000000
     45          9.314492   0.000000
     46          9.422079   0.000000
     47          9.460402   0.000000
     48          9.720190   0.000000
 
  0.5000000E+00  0.8333333E-01  0.0000000E+00  0.6944444E-02
      1        -34.979933   1.000000
      2        -34.979933   1.000000
      3        -34.970638   1.000000
      4        -34.970638   1.000000
      5        -17.009056   1.000000
      6        -17.009056   1.000000
      7        -17.005139   1.000000
      8        -17.005139   1.000000
      9        -16.976222   1.000000
     10        -16.976222   1.000000
     11        -16.946692   1.000000
     12        -16.946692   1.000000
     13        -16.913386   1.000000
     14        -16.913386   1.000000
     15        -16.909811   1.000000
     16        -16.909811   1.000000
     17         -0.762114   1.000000
     18         -0.762114   1.000000
     19          1.654788   0.250036
     20          1.654788   0.250036
     21          2.187051   0.000000
     22          2.187051   0.000000
     23          2.256713   0.000000
     24          2.256713   0.000000
     25          2.717787   0.000000
     26          2.717787   0.000000
     27          3.695274   0.000000
     28          3.695274   0.000000
     29          3.987881   0.000000
     30          3.987881   0.000000
     31          4.662095   0.000000
     32          4.662095   0.000000
     33          4.669861   0.000000
     34          4.669861   0.000000
     35          5.944963   0.000000
     36          5.944963   0.000000
     37          6.569303   0.000000
     38          6.569303   0.000000
     39          6.674321   0.000000
     40          6.674321   0.000000
     41          7.439003   0.000000
     42          7.439003   0.000000
     43          7.519182   0.000000
     44          7.519182   0.000000
     45          9.492396   0.000000
     46          9.492396   0.000000
     47          9.748366   0.000000
     48          9.748366   0.000000
 
  0.1666667E+00  0.1666667E+00  0.0000000E+00  0.6944444E-02
      1        -34.987217   1.000000
      2        -34.971692   1.000000
      3        -34.971692   1.000000
      4        -34.970574   1.000000
      5        -17.049290   1.000000
      6        -17.047753   1.000000
      7        -17.047753   1.000000
      8        -16.970397   1.000000
      9        -16.951096   1.000000
     10        -16.951096   1.000000
     11        -16.942697   1.000000
     12        -16.942697   1.000000
     13        -16.941121   1.000000
     14        -16.907410   1.000000
     15        -16.884891   1.000000
     16        -16.877476   1.000000
     17         -1.749258   1.000000
     18          0.814467   1.000000
     19          0.814467   1.000000
     20          1.223904   1.000000
     21          1.965693   0.000000
     22          2.068305   0.000000
     23          2.068305   0.000000
     24          2.563096   0.000000
     25          2.679441   0.000000
     26          2.679441   0.000000
     27          3.555857   0.000000
     28          4.052546   0.000000
     29          4.121793   0.000000
     30          5.126187   0.000000
     31          5.400065   0.000000
     32          5.400065   0.000000
     33          5.440752   0.000000
     34          5.497418   0.000000
     35          5.824126   0.000000
     36          6.001561   0.000000
     37          6.001561   0.000000
     38          6.574020   0.000000
     39          6.736959   0.000000
     40          6.736959   0.000000
     41          7.198214   0.000000
     42          7.270344   0.000000
     43          7.270344   0.000000
     44          7.977724   0.000000
     45          7.977724   0.000000
     46          8.313615   0.000000
     47          8.388027   0.000000
     48          9.007669   0.000000
 
  0.2500000E+00  0.1666667E+00  0.0000000E+00  0.1388889E-01
      1        -34.985792   1.000000
      2        -34.973111   1.000000
      3        -34.971583   1.000000
      4        -34.970670   1.000000
      5        -17.041867   1.000000
      6        -17.040374   1.000000
      7        -17.036751   1.000000
      8        -16.980757   1.000000
      9        -16.960213   1.000000
     10        -16.945075   1.000000
     11        -16.941794   1.000000
     12        -16.938479   1.000000
     13        -16.935553   1.000000
     14        -16.923866   1.000000
     15        -16.891017   1.000000
     16        -16.880575   1.000000
     17         -1.569073   1.000000
     18          0.496581   1.000000
     19          0.963232   1.000000
     20          1.372709   1.000000
     21          1.940356   0.000000
     22          2.101578   0.000000
     23          2.170541   0.000000
     24          2.503693   0.000000
     25          2.589848   0.000000
     26          2.807454   0.000000
     27          3.363167   0.000000
     28          4.062345   0.000000
     29          4.215882   0.000000
     30          4.930276   0.000000
     31          4.979375   0.000000
     32          5.056914   0.000000
     33          5.221251   0.000000
     34          5.518543   0.000000
     35          5.615796   0.000000
     36          5.832793   0.000000
     37          6.050191   0.000000
     38          6.472652   0.000000
     39          6.594637   0.000000
     40          6.813245   0.000000
     41          7.192465   0.000000
     42          7.386666   0.000000
     43          7.685678   0.000000
     44          7.981612   0.000000
     45          8.284503   0.000000
     46          8.546336   0.000000
     47          8.895867   0.000000
     48          9.371222   0.000000
 
  0.3333333E+00  0.1666667E+00  0.0000000E+00  0.1388889E-01
      1        -34.983930   1.000000
      2        -34.974967   1.000000
      3        -34.971443   1.000000
      4        -34.970802   1.000000
      5        -17.034136   1.000000
      6        -17.028730   1.000000
      7        -17.021972   1.000000
      8        -16.991915   1.000000
      9        -16.972051   1.000000
     10        -16.942980   1.000000
     11        -16.940695   1.000000
     12        -16.937372   1.000000
     13        -16.937204   1.000000
     14        -16.926456   1.000000
     15        -16.899001   1.000000
     16        -16.886750   1.000000
     17         -1.323460   1.000000
     18          0.116749   1.000000
     19          1.151440   1.000000
     20          1.545060   0.992434
     21          1.911840   0.000000
     22          2.148222   0.000000
     23          2.310463   0.000000
     24          2.431246   0.000000
     25          2.468974   0.000000
     26          3.014147   0.000000
     27          3.140331   0.000000
     28          4.033953   0.000000
     29          4.345810   0.000000
     30          4.593269   0.000000
     31          4.616821   0.000000
     32          4.701872   0.000000
     33          5.010947   0.000000
     34          5.274052   0.000000
     35          5.662852   0.000000
     36          5.984880   0.000000
     37          6.109325   0.000000
     38          6.386740   0.000000
     39          6.422888   0.000000
     40          6.692483   0.000000
     41          7.367331   0.000000
     42          7.567857   0.000000
     43          7.970112   0.000000
     44          8.167345   0.000000
     45          8.221834   0.000000
     46          9.126827   0.000000
     47          9.312557   0.000000
     48          9.496211   0.000000
 
  0.4166667E+00  0.1666667E+00  0.0000000E+00  0.1388889E-01
      1        -34.981767   1.000000
      2        -34.977125   1.000000
      3        -34.971287   1.000000
      4        -34.970953   1.000000
      5        -17.024810   1.000000
      6        -17.015068   1.000000
      7        -17.004178   1.000000
      8        -17.003226   1.000000