Cu                                      
   1.00000000000000     
     3.636890    0.000000    0.000000
     0.000000    3.636890    0.000000
     0.000000    0.000000    3.636890
   Cu
     4
Direct
  0.000000  0.000000  0.000000
  0.000000  0.500000  0.500000
  0.500000  0.000000  0.500000
  0.500000  0.500000  0.000000
 
   36   36   36
  846.81      807.98      701.44      552.77      393.06      249.36      139.10      68.556      33.341      20.837    
  15.720      12.179      9.9744      8.6666      7.8656      7.3375      6.9911      6.8000      6.7411      6.8000    
  6.9911      7.3375      7.8656      8.6666      9.9744      12.179      15.720      20.837      33.341      68.556    
  139.10      249.36      393.06      552.77      701.44      807.98      807.98      770.80      668.81      526.49    
  373.72      236.50      131.61      64.960      32.077      20.519      15.548      12.101      9.9571      8.6839    
  7.9016      7.3845      7.0450      6.8578      6.8000      6.8578      7.0450      7.3845      7.9016      8.6839    
  9.9571      12.101      15.548      20.519      32.077      64.960      131.61      236.50      373.72      526.49    
  668.81      770.80      701.44      668.81      579.29      454.47      320.83      201.53      111.45      55.470    
  28.847      19.671      15.067      11.890      9.9228      8.7495      8.0222      7.5381      7.2200      7.0450    
  6.9911      7.0450      7.2200      7.5381      8.0222      8.7495      9.9228      11.890      15.067      19.671    
  28.847      55.470      111.45      201.53      320.83      454.47      579.29      668.81      552.77      526.49    
  454.47      354.30      247.72      153.80      84.593      43.355      24.979      18.459      14.372      11.611    
  9.9110      8.8900      8.2493      7.8198      7.5381      7.3845      7.3375      7.3845      7.5381      7.8198    
  8.2493      8.8900      9.9110      11.611      14.372      18.459      24.979      43.355      84.593      153.80    
  247.72      354.30      454.47      526.49      393.06      373.72      320.83      247.72      170.93      104.88    
  58.216      32.301      21.695      17.002      13.591      11.342      9.9642      9.1303      8.6023      8.2493    
  8.0222      7.9016      7.8656      7.9016      8.0222      8.2493      8.6023      9.1303      9.9642      11.342    
  13.591      17.002      21.695      32.301      58.216      104.88      170.93      247.72      320.83      373.72    
  249.36      236.50      201.53      153.80      104.88      64.532      37.969      24.684      19.196      15.501    
  12.859      11.160      10.130      9.5118      9.1303      8.8900      8.7495      8.6839      8.6666      8.6839    
  8.7495      8.8900      9.1303      9.5118      10.130      11.160      12.859      15.501      19.196      24.684    
  37.969      64.532      104.88      153.80      201.53      236.50      139.10      131.61      111.45      84.593    
  58.216      37.969      26.015      20.438      16.893      14.154      12.292      11.142      10.482      10.130    
  9.9642      9.9110      9.9228      9.9571      9.9744      9.9571      9.9228      9.9110      9.9642      10.130    
  10.482      11.142      12.292      14.154      16.893      20.438      26.015      37.969      58.216      84.593    
  111.45      131.61      68.556      64.960      55.470      43.355      32.301      24.684      20.438      17.403    
  14.908      13.114      11.985      11.378      11.142      11.160      11.342      11.611      11.890      12.101    
  12.179      12.101      11.890      11.611      11.342      11.160      11.142      11.378      11.985      13.114    
  14.908      17.403      20.438      24.684      32.301      43.355      55.470      64.960      33.341      32.077    
  28.847      24.979      21.695      19.196      16.893      14.908      13.416      12.467      12.017      11.985    
  12.292      12.859      13.591      14.372      15.067      15.548      15.720      15.548      15.067      14.372    
  13.591      12.859      12.292      11.985      12.017      12.467      13.416      14.908      16.893      19.196    
  21.695      24.979      28.847      32.077      20.837      20.519      19.671      18.459      17.002      15.501    
  14.154      13.114      12.467      12.249      12.467      13.114      14.154      15.501      17.002      18.459    
  19.671      20.519      20.837      20.519      19.671      18.459      17.002      15.501      14.154      13.114    
  12.467      12.249      12.467      13.114      14.154      15.501      17.002      18.459      19.671      20.519    
  15.720      15.548      15.067      14.372      13.591      12.859      12.292      11.985      12.017      12.467    
  13.416      14.908      16.893      19.196      21.695      24.979      28.847      32.077      33.341      32.077    
  28.847      24.979      21.695      19.196      16.893      14.908      13.416      12.467      12.017      11.985    
  12.292      12.859      13.591      14.372      15.067      15.548      12.179      12.101      11.890      11.611    
  11.342      11.160      11.142      11.378      11.985      13.114      14.908      17.403      20.438      24.684    
  32.301      43.355      55.470      64.960      68.556      64.960      55.470      43.355      32.301      24.684    
  20.438      17.403      14.908      13.114      11.985      11.378      11.142      11.160      11.342      11.611    
  11.890      12.101      9.9744      9.9571      9.9228      9.9110      9.9642      10.130      10.482      11.142    
  12.292      14.154      16.893      20.438      26.015      37.969      58.216      84.593      111.45      131.61    
  139.10      131.61      111.45      84.593      58.216      37.969      26.015      20.438      16.893      14.154    
  12.292      11.142      10.482      10.130      9.9642      9.9110      9.9228      9.9571      8.6666      8.6839    
  8.7495      8.8900      9.1303      9.5118      10.130      11.160      12.859      15.501      19.196      24.684    
  37.969      64.532      104.88      153.80      201.53      236.50      249.36      236.50      201.53      153.80    
  104.88      64.532      37.969      24.684      19.196      15.501      12.859      11.160      10.130      9.5118    
  9.1303      8.8900      8.7495      8.6839      7.8656      7.9016      8.0222      8.2493      8.6023      9.1303    
  9.9642      11.342      13.591      17.002      21.695      32.301      58.216      104.88      170.93      247.72    
  320.83      373.72      393.06      373.72      320.83      247.72      170.93      104.88      58.216      32.301    
  21.695      17.002      13.591      11.342      9.9642      9.1303      8.6023      8.2493      8.0222      7.9016    
  7.3375      7.3845      7.5381      7.8198      8.2493      8.8900      9.9110      11.611      14.372      18.459    
  24.979      43.355      84.593      153.80      247.72      354.30      454.47      526.49      552.77      526.49    
  454.47      354.30      247.72      153.80      84.593      43.355      24.979      18.459      14.372      11.611    
  9.9110      8.8900      8.2493      7.8198      7.5381      7.3845      6.9911      7.0450      7.2200      7.5381    
  8.0222      8.7495      9.9228      11.890      15.067      19.671      28.847      55.470      111.45      201.53    
  320.83      454.47      579.29      668.81      701.44      668.81      579.29      454.47      320.83      201.53    
  111.45      55.470      28.847      19.671      15.067      11.890      9.9228      8.7495      8.0222      7.5381    
  7.2200      7.0450      6.8000      6.8578      7.0450      7.3845      7.9016      8.6839      9.9571      12.101    
  15.548      20.519      32.077      64.960      131.61      236.50      373.72      526.49      668.81      770.80    
  807.98      770.80      668.81      526.49      373.72      236.50      131.61      64.960      32.077      20.519    
  15.548      12.101      9.9571      8.6839      7.9016      7.3845      7.0450      6.8578      6.7411      6.8000    
  6.9911      7.3375      7.8656      8.6666      9.9744      12.179      15.720      20.837      33.341      68.556    
  139.10      249.36      393.06      552.77      701.44      807.98      846.81      807.98      701.44      552.77    
  393.06      249.36      139.10      68.556      33.341      20.837      15.720      12.179      9.9744      8.6666    
  7.8656      7.3375      6.9911      6.8000      6.8000      6.8578      7.0450      7.3845      7.9016      8.6839    
  9.9571      12.101      15.548      20.519      32.077      64.960      131.61      236.50      373.72      526.49    
  668.81      770.80      807.98      770.80      668.81      526.49      373.72      236.50      131.61      64.960    
  32.077      20.519      15.548      12.101      9.9571      8.6839      7.9016      7.3845      7.0450      6.8578    
  6.9911      7.0450      7.2200      7.5381      8.0222      8.7495      9.9228      11.890      15.067      19.671    
  28.847      55.470      111.45      201.53      320.83      454.47      579.29      668.81      701.44      668.81    
  579.29      454.47      320.83      201.53      111.45      55.470      28.847      19.671      15.067      11.890    
  9.9228      8.7495      8.0222      7.5381      7.2200      7.0450      7.3375      7.3845      7.5381      7.8198    
  8.2493      8.8900      9.9110      11.611      14.372      18.459      24.979      43.355      84.593      153.80    
  247.72      354.30      454.47      526.49      552.77      526.49      454.47      354.30      247.72      153.80    
  84.593      43.355      24.979      18.459      14.372      11.611      9.9110      8.8900      8.2493      7.8198    
  7.5381      7.3845      7.8656      7.9016      8.0222      8.2493      8.6023      9.1303      9.9642      11.342    
  13.591      17.002      21.695      32.301      58.216      104.88      170.93      247.72      320.83      373.72    
  393.06      373.72      320.83      247.72      170.93      104.88      58.216      32.301      21.695      17.002    
  13.591      11.342      9.9642      9.1303      8.6023      8.2493      8.0222      7.9016      8.6666      8.6839    
  8.7495      8.8900      9.1303      9.5118      10.130      11.160      12.859      15.501      19.196      24.684    
  37.969      64.532      104.88      153.80      201.53      236.50      249.36      236.50      201.53      153.80    
  104.88      64.532      37.969      24.684      19.196      15.501      12.859      11.160      10.130      9.5118    
  9.1303      8.8900      8.7495      8.6839      9.9744      9.9571      9.9228      9.9110      9.9642      10.130    
  10.482      11.142      12.292      14.154      16.893      20.438      26.015      37.969      58.216      84.593    
  111.45      131.61      139.10      131.61      111.45      84.593      58.216      37.969      26.015      20.438    
  16.893      14.154      12.292      11.142      10.482      10.130      9.9642      9.9110      9.9228      9.9571    
  12.179      12.101      11.890      11.611      11.342      11.160      11.142      11.378      11.985      13.114    
  14.908      17.403      20.438      24.684      32.301      43.355      55.470      64.960      68.556      64.960    
  55.470      43.355      32.301      24.684      20.438      17.403      14.908      13.114      11.985      11.378    
  11.142      11.160      11.342      11.611      11.890      12.101      15.720      15.548      15.067      14.372    
  13.591      12.859      12.292      11.985      12.017      12.467      13.416      14.908      16.893      19.196    
  21.695      24.979      28.847      32.077      33.341      32.077      28.847      24.979      21.695      19.196    
  16.893      14.908      13.416      12.467      12.017      11.985      12.292      12.859      13.591      14.372    
  15.067      15.548      20.837      20.519      19.671      18.459      17.002      15.501      14.154      13.114    
  12.467      12.249      12.467      13.114      14.154      15.501      17.002      18.459      19.671      20.519    
  20.837      20.519      19.671      18.459      17.002      15.501      14.154      13.114      12.467      12.249    
  12.467      13.114      14.154      15.501      17.002      18.459      19.671      20.519      33.341      32.077    
  28.847      24.979      21.695      19.196      16.893      14.908      13.416      12.467      12.017      11.985    
  12.292      12.859      13.591      14.372      15.067      15.548      15.720      15.548      15.067      14.372    
  13.591      12.859      12.292      11.985      12.017      12.467      13.416      14.908      16.893      19.196    
  21.695      24.979      28.847      32.077      68.556      64.960      55.470      43.355      32.301      24.684    
  20.438      17.403      14.908      13.114      11.985      11.378      11.142      11.160      11.342      11.611    
  11.890      12.101      12.179      12.101      11.890      11.611      11.342      11.160      11.142      11.378    
  11.985      13.114      14.908      17.403      20.438      24.684      32.301      43.355      55.470      64.960    
  139.10      131.61      111.45      84.593      58.216      37.969      26.015      20.438      16.893      14.154    
  12.292      11.142      10.482      10.130      9.9642      9.9110      9.9228      9.9571      9.9744      9.9571    
  9.9228      9.9110      9.9642      10.130      10.482      11.142      12.292      14.154      16.893      20.438    
  26.015      37.969      58.216      84.593      111.45      131.61      249.36      236.50      201.53      153.80    
  104.88      64.532      37.969      24.684      19.196      15.501      12.859      11.160      10.130      9.5118    
  9.1303      8.8900      8.7495      8.6839      8.6666      8.6839      8.7495      8.8900      9.1303      9.5118    
  10.130      11.160      12.859      15.501      19.196      24.684      37.969      64.532      104.88      153.80    
  201.53      236.50      393.06      373.72      320.83      247.72      170.93      104.88      58.216      32.301    
  21.695      17.002      13.591      11.342      9.9642      9.1303      8.6023      8.2493      8.0222      7.9016    
  7.8656      7.9016      8.0222      8.2493      8.6023      9.1303      9.9642      11.342      13.591      17.002    
  21.695      32.301      58.216      104.88      170.93      247.72      320.83      373.72      552.77      526.49    
  454.47      354.30      247.72      153.80      84.593      43.355      24.979      18.459      14.372      11.611    
  9.9110      8.8900      8.2493      7.8198      7.5381      7.3845      7.3375      7.3845      7.5381      7.8198    
  8.2493      8.8900      9.9110      11.611      14.372      18.459      24.979      43.355      84.593      153.80    
  247.72      354.30      454.47      526.49      701.44      668.81      579.29      454.47      320.83      201.53    
  111.45      55.470      28.847      19.671      15.067      11.890      9.9228      8.7495      8.0222      7.5381    
  7.2200      7.0450      6.9911      7.0450      7.2200      7.5381      8.0222      8.7495      9.9228      11.890    
  15.067      19.671      28.847      55.470      111.45      201.53      320.83      454.47      579.29      668.81    
  807.98      770.80      668.81      526.49      373.72      236.50      131.61      64.960      32.077      20.519    
  15.548      12.101      9.9571      8.6839      7.9016      7.3845      7.0450      6.8578      6.8000      6.8578    
  7.0450      7.3845      7.9016      8.6839      9.9571      12.101      15.548      20.519      32.077      64.960    
  131.61      236.50      373.72      526.49      668.81      770.80      807.98      770.80      668.81      526.49    
  373.72      236.50      131.61      64.960      32.077      20.519      15.548      12.101      9.9571      8.6839    
  7.9016      7.3845      7.0450      6.8578      6.8000      6.8578      7.0450      7.3845      7.9016      8.6839    
  9.9571      12.101      15.548      20.519      32.077      64.960      131.61      236.50      373.72      526.49    
  668.81      770.80      770.80      735.21      637.57      501.35      355.24      224.25      124.51      61.585    
  30.909      20.218      15.380      12.024      9.9398      8.7003      7.9364      7.4301      7.0975      6.9143    
  6.8578      6.9143      7.0975      7.4301      7.9364      8.7003      9.9398      12.024      15.380      20.218    
  30.909      61.585      124.51      224.25      355.24      501.35      637.57      735.21      668.81      637.57    
  551.89      432.46      304.72      190.95      105.43      52.695      27.930      19.407      14.909      11.817    
  9.9051      8.7630      8.0531      7.5796      7.2684      7.0975      7.0450      7.0975      7.2684      7.5796    
  8.0531      8.7630      9.9051      11.817      14.909      19.407      27.930      52.695      105.43      190.95    
  304.72      432.46      551.89      637.57      526.49      501.35      432.46      336.71      234.98      145.60    
  80.076      41.388      24.371      18.218      14.229      11.545      9.8923      8.8986      8.2736      7.8542    
  7.5796      7.4301      7.3845      7.4301      7.5796      7.8542      8.2736      8.8986      9.8923      11.545    
  14.229      18.218      24.371      41.388      80.076      145.60      234.98      336.71      432.46      501.35    
  373.72      355.24      304.72      234.98      161.88      99.239      55.284      31.134      21.334      16.790    
  13.467      11.282      9.9433      9.1319      8.6174      8.2736      8.0531      7.9364      7.9016      7.9364    
  8.0531      8.2736      8.6174      9.1319      9.9433      11.282      13.467      16.790      21.334      31.134    
  55.284      99.239      161.88      234.98      304.72      355.24      236.50      224.25      190.95      145.60    
  99.239      61.213      36.393      24.115      18.933      15.324      12.754      11.105      10.105      9.5033    
  9.1319      8.8986      8.7630      8.7003      8.6839      8.7003      8.7630      8.8986      9.1319      9.5033    
  10.105      11.105      12.754      15.324      18.933      24.115      36.393      61.213      99.239      145.60    
  190.95      224.25      131.61      124.51      105.43      80.076      55.284      36.393      25.344      20.145    
  16.679      14.013      12.205      11.089      10.447      10.105      9.9433      9.8923      9.9051      9.9398    
  9.9571      9.9398      9.9051      9.8923      9.9433      10.105      10.447      11.089      12.205      14.013    
  16.679      20.145      25.344      36.393      55.284      80.076      105.43      124.51      64.960      61.585    
  52.695      41.388      31.134      24.115      20.145      17.177      14.745      13.003      11.908      11.318    
  11.089      11.105      11.282      11.545      11.817      12.024      12.101      12.024      11.817      11.545    
  11.282      11.105      11.089      11.318      11.908      13.003      14.745      17.177      20.145      24.115    
  31.134      41.388      52.695      61.585      32.077      30.909      27.930      24.371      21.334      18.933    
  16.679      14.745      13.297      12.377      11.940      11.908      12.205      12.754      13.467      14.229    
  14.909      15.380      15.548      15.380      14.909      14.229      13.467      12.754      12.205      11.908    
  11.940      12.377      13.297      14.745      16.679      18.933      21.334      24.371      27.930      30.909    
  20.519      20.218      19.407      18.218      16.790      15.324      14.013      13.003      12.377      12.166    
  12.377      13.003      14.013      15.324      16.790      18.218      19.407      20.218      20.519      20.218    
  19.407      18.218      16.790      15.324      14.013      13.003      12.377      12.166      12.377      13.003    
  14.013      15.324      16.790      18.218      19.407      20.218      15.548      15.380      14.909      14.229    
  13.467      12.754      12.205      11.908      11.940      12.377      13.297      14.745      16.679      18.933    
  21.334      24.371      27.930      30.909      32.077      30.909      27.930      24.371      21.334      18.933    
  16.679      14.745      13.297      12.377      11.940      11.908      12.205      12.754      13.467      14.229    
  14.909      15.380      12.101      12.024      11.817      11.545      11.282      11.105      11.089      11.318    
  11.908      13.003      14.745      17.177      20.145      24.115      31.134      41.388      52.695      61.585    
  64.960      61.585      52.695      41.388      31.134      24.115      20.145      17.177      14.745      13.003    
  11.908      11.318      11.089      11.105      11.282      11.545      11.817      12.024      9.9571      9.9398    
  9.9051      9.8923      9.9433      10.105      10.447      11.089      12.205      14.013      16.679      20.145    
  25.344      36.393      55.284      80.076      105.43      124.51      131.61      124.51      105.43      80.076    
  55.284      36.393      25.344      20.145      16.679      14.013      12.205      11.089      10.447      10.105    
  9.9433      9.8923      9.9051      9.9398      8.6839      8.7003      8.7630      8.8986      9.1319      9.5033    
  10.105      11.105      12.754      15.324      18.933      24.115      36.393      61.213      99.239      145.60    
  190.95      224.25      236.50      224.25      190.95      145.60      99.239      61.213      36.393      24.115    
  18.933      15.324      12.754      11.105      10.105      9.5033      9.1319      8.8986      8.7630      8.7003    
  7.9016      7.9364      8.0531      8.2736      8.6174      9.1319      9.9433      11.282      13.467      16.790    
  21.334      31.134      55.284      99.239      161.88      234.98      304.72      355.24      373.72      355.24    
  304.72      234.98      161.88      99.239      55.284      31.134      21.334      16.790      13.467      11.282    
  9.9433      9.1319      8.6174      8.2736      8.0531      7.9364      7.3845      7.4301      7.5796      7.8542    
  8.2736      8.8986      9.8923      11.545      14.229      18.218      24.371      41.388      80.076      145.60    
  234.98      336.71      432.46      501.35      526.49      501.35      432.46      336.71      234.98      145.60    
  80.076      41.388      24.371      18.218      14.229      11.545      9.8923      8.8986      8.2736      7.8542    
  7.5796      7.4301      7.0450      7.0975      7.2684      7.5796      8.0531      8.7630      9.9051      11.817    
  14.909      19.407      27.930      52.695      105.43      190.95      304.72      432.46      551.89      637.57    
  668.81      637.57      551.89      432.46      304.72      190.95      105.43      52.695      27.930      19.407    
  14.909      11.817      9.9051      8.7630      8.0531      7.5796      7.2684      7.0975      6.8578      6.9143    
  7.0975      7.4301      7.9364      8.7003      9.9398      12.024      15.380      20.218      30.909      61.585    
  124.51      224.25      355.24      501.35      637.57      735.21      770.80      735.21      637.57      501.35    
  355.24      224.25      124.51      61.585      30.909      20.218      15.380      12.024      9.9398      8.7003    
  7.9364      7.4301      7.0975      6.9143      6.8000      6.8578      7.0450      7.3845      7.9016      8.6839    
  9.9571      12.101      15.548      20.519      32.077      64.960      131.61      236.50      373.72      526.49    
  668.81      770.80      807.98      770.80      668.81      526.49      373.72      236.50      131.61      64.960    
  32.077      20.519      15.548      12.101      9.9571      8.6839      7.9016      7.3845      7.0450      6.8578    
  6.8578      6.9143      7.0975      7.4301      7.9364      8.7003      9.9398      12.024      15.380      20.218    
  30.909      61.585      124.51      224.25      355.24      501.35      637.57      735.21      770.80      735.21    
  637.57      501.35      355.24      224.25      124.51      61.585      30.909      20.218      15.380      12.024    
  9.9398      8.7003      7.9364      7.4301      7.0975      6.9143      7.0450      7.0975      7.2684      7.5796    
  8.0531      8.7630      9.9051      11.817      14.909      19.407      27.930      52.695      105.43      190.95    
  304.72      432.46      551.89      637.57      668.81      637.57      551.89      432.46      304.72      190.95    
  105.43      52.695      27.930      19.407      14.909      11.817      9.9051      8.7630      8.0531      7.5796    
  7.2684      7.0975      7.3845      7.4301      7.5796      7.8542      8.2736      8.8986      9.8923      11.545    
  14.229      18.218      24.371      41.388      80.076      145.60      234.98      336.71      432.46      501.35    
  526.49      501.35      432.46      336.71      234.98      145.60      80.076      41.388      24.371      18.218    
  14.229      11.545      9.8923      8.8986      8.2736      7.8542      7.5796      7.4301      7.9016      7.9364    
  8.0531      8.2736      8.6174      9.1319      9.9433      11.282      13.467      16.790      21.334      31.134    
  55.284      99.239      161.88      234.98      304.72      355.24      373.72      355.24      304.72      234.98    
  161.88      99.239      55.284      31.134      21.334      16.790      13.467      11.282      9.9433      9.1319    
  8.6174      8.2736      8.0531      7.9364      8.6839      8.7003      8.7630      8.8986      9.1319      9.5033    
  10.105      11.105      12.754      15.324      18.933      24.115      36.393      61.213      99.239      145.60    
  190.95      224.25      236.50      224.25      190.95      145.60      99.239      61.213      36.393      24.115    
  18.933      15.324      12.754      11.105      10.105      9.5033      9.1319      8.8986      8.7630      8.7003    
  9.9571      9.9398      9.9051      9.8923      9.9433      10.105      10.447      11.089      12.205      14.013    
  16.679      20.145      25.344      36.393      55.284      80.076      105.43      124.51      131.61      124.51    
  105.43      80.076      55.284      36.393      25.344      20.145      16.679      14.013      12.205      11.089    
  10.447      10.105      9.9433      9.8923      9.9051      9.9398      12.101      12.024      11.817      11.545    
  11.282      11.105      11.089      11.318      11.908      13.003      14.745      17.177      20.145      24.115    
  31.134      41.388      52.695      61.585      64.960      61.585      52.695      41.388      31.134      24.115    
  20.145      17.177      14.745      13.003      11.908      11.318      11.089      11.105      11.282      11.545    
  11.817      12.024      15.548      15.380      14.909      14.229      13.467      12.754      12.205      11.908    
  11.940      12.377      13.297      14.745      16.679      18.933      21.334      24.371      27.930      30.909    
  32.077      30.909      27.930      24.371      21.334      18.933      16.679      14.745      13.297      12.377    
  11.940      11.908      12.205      12.754      13.467      14.229      14.909      15.380      20.519      20.218    
  19.407      18.218      16.790      15.324      14.013      13.003      12.377      12.166      12.377      13.003    
  14.013      15.324      16.790      18.218      19.407      20.218      20.519      20.218      19.407      18.218    
  16.790      15.324      14.013      13.003      12.377      12.166      12.377      13.003      14.013      15.324    
  16.790      18.218      19.407      20.218      32.077      30.909      27.930      24.371      21.334      18.933    
  16.679      14.745      13.297      12.377      11.940      11.908      12.205      12.754      13.467      14.229    
  14.909      15.380      15.548      15.380      14.909      14.229      13.467      12.754      12.205      11.908    
  11.940      12.377      13.297      14.745      16.679      18.933      21.334      24.371      27.930      30.909    
  64.960      61.585      52.695      41.388      31.134      24.115      20.145      17.177      14.745      13.003    
  11.908      11.318      11.089      11.105      11.282      11.545      11.817      12.024      12.101      12.024    
  11.817      11.545      11.282      11.105      11.089      11.318      11.908      13.003      14.745      17.177    
  20.145      24.115      31.134      41.388      52.695      61.585      131.61      124.51      105.43      80.076    
  55.284      36.393      25.344      20.145      16.679      14.013      12.205      11.089      10.447      10.105    
  9.9433      9.8923      9.9051      9.9398      9.9571      9.9398      9.9051      9.8923      9.9433      10.105    
  10.447      11.089      12.205      14.013      16.679      20.145      25.344      36.393      55.284      80.076    
  105.43      124.51      236.50      224.25      190.95      145.60      99.239      61.213      36.393      24.115    
  18.933      15.324      12.754      11.105      10.105      9.5033      9.1319      8.8986      8.7630      8.7003    
  8.6839      8.7003      8.7630      8.8986      9.1319      9.5033      10.105      11.105      12.754      15.324    
  18.933      24.115      36.393      61.213      99.239      145.60      190.95      224.25      373.72      355.24    