Cu                                      
   1.00000000000000     
     3.636890    0.000000    0.000000
     0.000000    3.636890    0.000000
     0.000000    0.000000    3.636890
   Cu
     4
Direct
  0.000000  0.000000  0.000000
  0.000000  0.500000  0.500000
  0.500000  0.000000  0.500000
  0.500000  0.500000  0.000000
 
   36   36   36
 0.84680962758E+03 0.80797675278E+03 0.70144406666E+03 0.55276750924E+03 0.39306421357E+03
 0.24935880107E+03 0.13910151776E+03 0.68555649061E+02 0.33341288041E+02 0.20837386932E+02
 0.15719824399E+02 0.12179492613E+02 0.99744004203E+01 0.86666210045E+01 0.78656206105E+01
 0.73375142005E+01 0.69911350629E+01 0.68000424548E+01 0.67410567094E+01 0.68000424548E+01
 0.69911350629E+01 0.73375142005E+01 0.78656206105E+01 0.86666210045E+01 0.99744004203E+01
 0.12179492613E+02 0.15719824399E+02 0.20837386932E+02 0.33341288041E+02 0.68555649061E+02
 0.13910151776E+03 0.24935880107E+03 0.39306421357E+03 0.55276750924E+03 0.70144406666E+03
 0.80797675278E+03 0.80797675278E+03 0.77080062474E+03 0.66881040111E+03 0.52649194388E+03
 0.37372027213E+03 0.23649860437E+03 0.13160965291E+03 0.64959794892E+02 0.32077230073E+02
 0.20518921396E+02 0.15547998086E+02 0.12100825990E+02 0.99571278102E+01 0.86839387489E+01
 0.79016414467E+01 0.73844614863E+01 0.70449766319E+01 0.68577847599E+01 0.68000424548E+01
 0.68577847599E+01 0.70449766319E+01 0.73844614863E+01 0.79016414467E+01 0.86839387489E+01
 0.99571278102E+01 0.12100825990E+02 0.15547998086E+02 0.20518921396E+02 0.32077230073E+02
 0.64959794892E+02 0.13160965291E+03 0.23649860437E+03 0.37372027213E+03 0.52649194388E+03
 0.66881040111E+03 0.77080062474E+03 0.70144406666E+03 0.66881040111E+03 0.57929142521E+03
 0.45447086655E+03 0.32082716498E+03 0.20152610683E+03 0.11145104175E+03 0.55470012558E+02
 0.28847049345E+02 0.19671192888E+02 0.15067255042E+02 0.11890189509E+02 0.99227951948E+01
 0.87494744090E+01 0.80222396955E+01 0.75381419197E+01 0.72199807013E+01 0.70449766319E+01
 0.69911350629E+01 0.70449766319E+01 0.72199807013E+01 0.75381419197E+01 0.80222396955E+01
 0.87494744090E+01 0.99227951948E+01 0.11890189509E+02 0.15067255042E+02 0.19671192888E+02
 0.28847049345E+02 0.55470012558E+02 0.11145104175E+03 0.20152610683E+03 0.32082716498E+03
 0.45447086655E+03 0.57929142521E+03 0.66881040111E+03 0.55276750924E+03 0.52649194388E+03
 0.45447086655E+03 0.35430214403E+03 0.24771958708E+03 0.15380453263E+03 0.84593418375E+02
 0.43354955926E+02 0.24979295332E+02 0.18458889101E+02 0.14371921681E+02 0.11611408706E+02
 0.99109980267E+01 0.88899630428E+01 0.82493439187E+01 0.78197828798E+01 0.75381419197E+01
 0.73844614863E+01 0.73375142005E+01 0.73844614863E+01 0.75381419197E+01 0.78197828798E+01
 0.82493439187E+01 0.88899630428E+01 0.99109980267E+01 0.11611408706E+02 0.14371921681E+02
 0.18458889101E+02 0.24979295332E+02 0.43354955926E+02 0.84593418375E+02 0.15380453263E+03
 0.24771958708E+03 0.35430214403E+03 0.45447086655E+03 0.52649194388E+03 0.39306421357E+03
 0.37372027213E+03 0.32082716498E+03 0.24771958708E+03 0.17092841349E+03 0.10487702042E+03
 0.58215847601E+02 0.32300808530E+02 0.21694911692E+02 0.17001942194E+02 0.13590923993E+02
 0.11342428926E+02 0.99642140267E+01 0.91303077877E+01 0.86022960986E+01 0.82493439187E+01
 0.80222396955E+01 0.79016414467E+01 0.78656206105E+01 0.79016414467E+01 0.80222396955E+01
 0.82493439187E+01 0.86022960986E+01 0.91303077877E+01 0.99642140267E+01 0.11342428926E+02
 0.13590923993E+02 0.17001942194E+02 0.21694911692E+02 0.32300808530E+02 0.58215847601E+02
 0.10487702042E+03 0.17092841349E+03 0.24771958708E+03 0.32082716498E+03 0.37372027213E+03
 0.24935880107E+03 0.23649860437E+03 0.20152610683E+03 0.15380453263E+03 0.10487702042E+03
 0.64532177431E+02 0.37969289060E+02 0.24684410876E+02 0.19196124218E+02 0.15500845852E+02
 0.12858513517E+02 0.11160214917E+02 0.10129960019E+02 0.95118071238E+01 0.91303077877E+01
 0.88899630428E+01 0.87494744090E+01 0.86839387489E+01 0.86666210045E+01 0.86839387489E+01
 0.87494744090E+01 0.88899630428E+01 0.91303077877E+01 0.95118071238E+01 0.10129960019E+02
 0.11160214917E+02 0.12858513517E+02 0.15500845852E+02 0.19196124218E+02 0.24684410876E+02
 0.37969289060E+02 0.64532177431E+02 0.10487702042E+03 0.15380453263E+03 0.20152610683E+03
 0.23649860437E+03 0.13910151776E+03 0.13160965291E+03 0.11145104175E+03 0.84593418375E+02
 0.58215847601E+02 0.37969289060E+02 0.26014713314E+02 0.20437650467E+02 0.16892903790E+02
 0.14154480349E+02 0.12292053754E+02 0.11142039167E+02 0.10481995116E+02 0.10129960019E+02
 0.99642140267E+01 0.99109980267E+01 0.99227951948E+01 0.99571278102E+01 0.99744004203E+01
 0.99571278102E+01 0.99227951948E+01 0.99109980267E+01 0.99642140267E+01 0.10129960019E+02
 0.10481995116E+02 0.11142039167E+02 0.12292053754E+02 0.14154480349E+02 0.16892903790E+02
 0.20437650467E+02 0.26014713314E+02 0.37969289060E+02 0.58215847601E+02 0.84593418375E+02
 0.11145104175E+03 0.13160965291E+03 0.68555649061E+02 0.64959794892E+02 0.55470012558E+02
 0.43354955926E+02 0.32300808530E+02 0.24684410876E+02 0.20437650467E+02 0.17403158291E+02
 0.14907545010E+02 0.13114302217E+02 0.11985062210E+02 0.11377632763E+02 0.11142039167E+02
 0.11160214917E+02 0.11342428926E+02 0.11611408706E+02 0.11890189509E+02 0.12100825990E+02
 0.12179492613E+02 0.12100825990E+02 0.11890189509E+02 0.11611408706E+02 0.11342428926E+02
 0.11160214917E+02 0.11142039167E+02 0.11377632763E+02 0.11985062210E+02 0.13114302217E+02
 0.14907545010E+02 0.17403158291E+02 0.20437650467E+02 0.24684410876E+02 0.32300808530E+02
 0.43354955926E+02 0.55470012558E+02 0.64959794892E+02 0.33341288041E+02 0.32077230073E+02
 0.28847049345E+02 0.24979295332E+02 0.21694911692E+02 0.19196124218E+02 0.16892903790E+02
 0.14907545010E+02 0.13416383006E+02 0.12467439771E+02 0.12016810465E+02 0.11985062210E+02
 0.12292053754E+02 0.12858513517E+02 0.13590923993E+02 0.14371921681E+02 0.15067255042E+02
 0.15547998086E+02 0.15719824399E+02 0.15547998086E+02 0.15067255042E+02 0.14371921681E+02
 0.13590923993E+02 0.12858513517E+02 0.12292053754E+02 0.11985062210E+02 0.12016810465E+02
 0.12467439771E+02 0.13416383006E+02 0.14907545010E+02 0.16892903790E+02 0.19196124218E+02
 0.21694911692E+02 0.24979295332E+02 0.28847049345E+02 0.32077230073E+02 0.20837386932E+02
 0.20518921396E+02 0.19671192888E+02 0.18458889101E+02 0.17001942194E+02 0.15500845852E+02
 0.14154480349E+02 0.13114302217E+02 0.12467439771E+02 0.12249206418E+02 0.12467439771E+02
 0.13114302217E+02 0.14154480349E+02 0.15500845852E+02 0.17001942194E+02 0.18458889101E+02
 0.19671192888E+02 0.20518921396E+02 0.20837386932E+02 0.20518921396E+02 0.19671192888E+02
 0.18458889101E+02 0.17001942194E+02 0.15500845852E+02 0.14154480349E+02 0.13114302217E+02
 0.12467439771E+02 0.12249206418E+02 0.12467439771E+02 0.13114302217E+02 0.14154480349E+02
 0.15500845852E+02 0.17001942194E+02 0.18458889101E+02 0.19671192888E+02 0.20518921396E+02
 0.15719824399E+02 0.15547998086E+02 0.15067255042E+02 0.14371921681E+02 0.13590923993E+02
 0.12858513517E+02 0.12292053754E+02 0.11985062210E+02 0.12016810465E+02 0.12467439771E+02
 0.13416383006E+02 0.14907545010E+02 0.16892903790E+02 0.19196124218E+02 0.21694911692E+02
 0.24979295332E+02 0.28847049345E+02 0.32077230073E+02 0.33341288041E+02 0.32077230073E+02
 0.28847049345E+02 0.24979295332E+02 0.21694911692E+02 0.19196124218E+02 0.16892903790E+02
 0.14907545010E+02 0.13416383006E+02 0.12467439771E+02 0.12016810465E+02 0.11985062210E+02
 0.12292053754E+02 0.12858513517E+02 0.13590923993E+02 0.14371921681E+02 0.15067255042E+02
 0.15547998086E+02 0.12179492613E+02 0.12100825990E+02 0.11890189509E+02 0.11611408706E+02
 0.11342428926E+02 0.11160214917E+02 0.11142039167E+02 0.11377632763E+02 0.11985062210E+02
 0.13114302217E+02 0.14907545010E+02 0.17403158291E+02 0.20437650467E+02 0.24684410876E+02
 0.32300808530E+02 0.43354955926E+02 0.55470012558E+02 0.64959794892E+02 0.68555649061E+02
 0.64959794892E+02 0.55470012558E+02 0.43354955926E+02 0.32300808530E+02 0.24684410876E+02
 0.20437650467E+02 0.17403158291E+02 0.14907545010E+02 0.13114302217E+02 0.11985062210E+02
 0.11377632763E+02 0.11142039167E+02 0.11160214917E+02 0.11342428926E+02 0.11611408706E+02
 0.11890189509E+02 0.12100825990E+02 0.99744004203E+01 0.99571278102E+01 0.99227951948E+01
 0.99109980267E+01 0.99642140267E+01 0.10129960019E+02 0.10481995116E+02 0.11142039167E+02
 0.12292053754E+02 0.14154480349E+02 0.16892903790E+02 0.20437650467E+02 0.26014713314E+02
 0.37969289060E+02 0.58215847601E+02 0.84593418375E+02 0.11145104175E+03 0.13160965291E+03
 0.13910151776E+03 0.13160965291E+03 0.11145104175E+03 0.84593418375E+02 0.58215847601E+02
 0.37969289060E+02 0.26014713314E+02 0.20437650467E+02 0.16892903790E+02 0.14154480349E+02
 0.12292053754E+02 0.11142039167E+02 0.10481995116E+02 0.10129960019E+02 0.99642140267E+01
 0.99109980267E+01 0.99227951948E+01 0.99571278102E+01 0.86666210045E+01 0.86839387489E+01
 0.87494744090E+01 0.88899630428E+01 0.91303077877E+01 0.95118071238E+01 0.10129960019E+02
 0.11160214917E+02 0.12858513517E+02 0.15500845852E+02 0.19196124218E+02 0.24684410876E+02
 0.37969289060E+02 0.64532177431E+02 0.10487702042E+03 0.15380453263E+03 0.20152610683E+03
 0.23649860437E+03 0.24935880107E+03 0.23649860437E+03 0.20152610683E+03 0.15380453263E+03
 0.10487702042E+03 0.64532177431E+02 0.37969289060E+02 0.24684410876E+02 0.19196124218E+02
 0.15500845852E+02 0.12858513517E+02 0.11160214917E+02 0.10129960019E+02 0.95118071238E+01
 0.91303077877E+01 0.88899630428E+01 0.87494744090E+01 0.86839387489E+01 0.78656206105E+01
 0.79016414467E+01 0.80222396955E+01 0.82493439187E+01 0.86022960986E+01 0.91303077877E+01
 0.99642140267E+01 0.11342428926E+02 0.13590923993E+02 0.17001942194E+02 0.21694911692E+02
 0.32300808530E+02 0.58215847601E+02 0.10487702042E+03 0.17092841349E+03 0.24771958708E+03
 0.32082716498E+03 0.37372027213E+03 0.39306421357E+03 0.37372027213E+03 0.32082716498E+03
 0.24771958708E+03 0.17092841349E+03 0.10487702042E+03 0.58215847601E+02 0.32300808530E+02
 0.21694911692E+02 0.17001942194E+02 0.13590923993E+02 0.11342428926E+02 0.99642140267E+01
 0.91303077877E+01 0.86022960986E+01 0.82493439187E+01 0.80222396955E+01 0.79016414467E+01
 0.73375142005E+01 0.73844614863E+01 0.75381419197E+01 0.78197828798E+01 0.82493439187E+01
 0.88899630428E+01 0.99109980267E+01 0.11611408706E+02 0.14371921681E+02 0.18458889101E+02
 0.24979295332E+02 0.43354955926E+02 0.84593418375E+02 0.15380453263E+03 0.24771958708E+03
 0.35430214403E+03 0.45447086655E+03 0.52649194388E+03 0.55276750924E+03 0.52649194388E+03
 0.45447086655E+03 0.35430214403E+03 0.24771958708E+03 0.15380453263E+03 0.84593418375E+02
 0.43354955926E+02 0.24979295332E+02 0.18458889101E+02 0.14371921681E+02 0.11611408706E+02
 0.99109980267E+01 0.88899630428E+01 0.82493439187E+01 0.78197828798E+01 0.75381419197E+01
 0.73844614863E+01 0.69911350629E+01 0.70449766319E+01 0.72199807013E+01 0.75381419197E+01
 0.80222396955E+01 0.87494744090E+01 0.99227951948E+01 0.11890189509E+02 0.15067255042E+02
 0.19671192888E+02 0.28847049345E+02 0.55470012558E+02 0.11145104175E+03 0.20152610683E+03
 0.32082716498E+03 0.45447086655E+03 0.57929142521E+03 0.66881040111E+03 0.70144406666E+03
 0.66881040111E+03 0.57929142521E+03 0.45447086655E+03 0.32082716498E+03 0.20152610683E+03
 0.11145104175E+03 0.55470012558E+02 0.28847049345E+02 0.19671192888E+02 0.15067255042E+02
 0.11890189509E+02 0.99227951948E+01 0.87494744090E+01 0.80222396955E+01 0.75381419197E+01
 0.72199807013E+01 0.70449766319E+01 0.68000424548E+01 0.68577847599E+01 0.70449766319E+01
 0.73844614863E+01 0.79016414467E+01 0.86839387489E+01 0.99571278102E+01 0.12100825990E+02
 0.15547998086E+02 0.20518921396E+02 0.32077230073E+02 0.64959794892E+02 0.13160965291E+03
 0.23649860437E+03 0.37372027213E+03 0.52649194388E+03 0.66881040111E+03 0.77080062474E+03
 0.80797675278E+03 0.77080062474E+03 0.66881040111E+03 0.52649194388E+03 0.37372027213E+03
 0.23649860437E+03 0.13160965291E+03 0.64959794892E+02 0.32077230073E+02 0.20518921396E+02
 0.15547998086E+02 0.12100825990E+02 0.99571278102E+01 0.86839387489E+01 0.79016414467E+01
 0.73844614863E+01 0.70449766319E+01 0.68577847599E+01 0.67410567094E+01 0.68000424548E+01
 0.69911350629E+01 0.73375142005E+01 0.78656206105E+01 0.86666210045E+01 0.99744004203E+01
 0.12179492613E+02 0.15719824399E+02 0.20837386932E+02 0.33341288041E+02 0.68555649061E+02
 0.13910151776E+03 0.24935880107E+03 0.39306421357E+03 0.55276750924E+03 0.70144406666E+03
 0.80797675278E+03 0.84680962758E+03 0.80797675278E+03 0.70144406666E+03 0.55276750924E+03
 0.39306421357E+03 0.24935880107E+03 0.13910151776E+03 0.68555649061E+02 0.33341288041E+02
 0.20837386932E+02 0.15719824399E+02 0.12179492613E+02 0.99744004203E+01 0.86666210045E+01
 0.78656206105E+01 0.73375142005E+01 0.69911350629E+01 0.68000424548E+01 0.68000424548E+01
 0.68577847599E+01 0.70449766319E+01 0.73844614863E+01 0.79016414467E+01 0.86839387489E+01
 0.99571278102E+01 0.12100825990E+02 0.15547998086E+02 0.20518921396E+02 0.32077230073E+02
 0.64959794892E+02 0.13160965291E+03 0.23649860437E+03 0.37372027213E+03 0.52649194388E+03
 0.66881040111E+03 0.77080062474E+03 0.80797675278E+03 0.77080062474E+03 0.66881040111E+03
 0.52649194388E+03 0.37372027213E+03 0.23649860437E+03 0.13160965291E+03 0.64959794892E+02
 0.32077230073E+02 0.20518921396E+02 0.15547998086E+02 0.12100825990E+02 0.99571278102E+01
 0.86839387489E+01 0.79016414467E+01 0.73844614863E+01 0.70449766319E+01 0.68577847599E+01
 0.69911350629E+01 0.70449766319E+01 0.72199807013E+01 0.75381419197E+01 0.80222396955E+01
 0.87494744090E+01 0.99227951948E+01 0.11890189509E+02 0.15067255042E+02 0.19671192888E+02
 0.28847049345E+02 0.55470012558E+02 0.11145104175E+03 0.20152610683E+03 0.32082716498E+03
 0.45447086655E+03 0.57929142521E+03 0.66881040111E+03 0.70144406666E+03 0.66881040111E+03
 0.57929142521E+03 0.45447086655E+03 0.32082716498E+03 0.20152610683E+03 0.11145104175E+03
 0.55470012558E+02 0.28847049345E+02 0.19671192888E+02 0.15067255042E+02 0.11890189509E+02
 0.99227951948E+01 0.87494744090E+01 0.80222396955E+01 0.75381419197E+01 0.72199807013E+01
 0.70449766319E+01 0.73375142005E+01 0.73844614863E+01 0.75381419197E+01 0.78197828798E+01
 0.82493439187E+01 0.88899630428E+01 0.99109980267E+01 0.11611408706E+02 0.14371921681E+02
 0.18458889101E+02 0.24979295332E+02 0.43354955926E+02 0.84593418375E+02 0.15380453263E+03
 0.24771958708E+03 0.35430214403E+03 0.45447086655E+03 0.52649194388E+03 0.55276750924E+03
 0.52649194388E+03 0.45447086655E+03 0.35430214403E+03 0.24771958708E+03 0.15380453263E+03
 0.84593418375E+02 0.43354955926E+02 0.24979295332E+02 0.18458889101E+02 0.14371921681E+02
 0.11611408706E+02 0.99109980267E+01 0.88899630428E+01 0.82493439187E+01 0.78197828798E+01
 0.75381419197E+01 0.73844614863E+01 0.78656206105E+01 0.79016414467E+01 0.80222396955E+01
 0.82493439187E+01 0.86022960986E+01 0.91303077877E+01 0.99642140267E+01 0.11342428926E+02
 0.13590923993E+02 0.17001942194E+02 0.21694911692E+02 0.32300808530E+02 0.58215847601E+02
 0.10487702042E+03 0.17092841349E+03 0.24771958708E+03 0.32082716498E+03 0.37372027213E+03
 0.39306421357E+03 0.37372027213E+03 0.32082716498E+03 0.24771958708E+03 0.17092841349E+03
 0.10487702042E+03 0.58215847601E+02 0.32300808530E+02 0.21694911692E+02 0.17001942194E+02
 0.13590923993E+02 0.11342428926E+02 0.99642140267E+01 0.91303077877E+01 0.86022960986E+01
 0.82493439187E+01 0.80222396955E+01 0.79016414467E+01 0.86666210045E+01 0.86839387489E+01
 0.87494744090E+01 0.88899630428E+01 0.91303077877E+01 0.95118071238E+01 0.10129960019E+02
 0.11160214917E+02 0.12858513517E+02 0.15500845852E+02 0.19196124218E+02 0.24684410876E+02
 0.37969289060E+02 0.64532177431E+02 0.10487702042E+03 0.15380453263E+03 0.20152610683E+03
 0.23649860437E+03 0.24935880107E+03 0.23649860437E+03 0.20152610683E+03 0.15380453263E+03
 0.10487702042E+03 0.64532177431E+02 0.37969289060E+02 0.24684410876E+02 0.19196124218E+02
 0.15500845852E+02 0.12858513517E+02 0.11160214917E+02 0.10129960019E+02 0.95118071238E+01
 0.91303077877E+01 0.88899630428E+01 0.87494744090E+01 0.86839387489E+01 0.99744004203E+01
 0.99571278102E+01 0.99227951948E+01 0.99109980267E+01 0.99642140267E+01 0.10129960019E+02
 0.10481995116E+02 0.11142039167E+02 0.12292053754E+02 0.14154480349E+02 0.16892903790E+02
 0.20437650467E+02 0.26014713314E+02 0.37969289060E+02 0.58215847601E+02 0.84593418375E+02
 0.11145104175E+03 0.13160965291E+03 0.13910151776E+03 0.13160965291E+03 0.11145104175E+03
 0.84593418375E+02 0.58215847601E+02 0.37969289060E+02 0.26014713314E+02 0.20437650467E+02
 0.16892903790E+02 0.14154480349E+02 0.12292053754E+02 0.11142039167E+02 0.10481995116E+02
 0.10129960019E+02 0.99642140267E+01 0.99109980267E+01 0.99227951948E+01 0.99571278102E+01
 0.12179492613E+02 0.12100825990E+02 0.11890189509E+02 0.11611408706E+02 0.11342428926E+02
 0.11160214917E+02 0.11142039167E+02 0.11377632763E+02 0.11985062210E+02 0.13114302217E+02
 0.14907545010E+02 0.17403158291E+02 0.20437650467E+02 0.24684410876E+02 0.32300808530E+02
 0.43354955926E+02 0.55470012558E+02 0.64959794892E+02 0.68555649061E+02 0.64959794892E+02
 0.55470012558E+02 0.43354955926E+02 0.32300808530E+02 0.24684410876E+02 0.20437650467E+02
 0.17403158291E+02 0.14907545010E+02 0.13114302217E+02 0.11985062210E+02 0.11377632763E+02
 0.11142039167E+02 0.11160214917E+02 0.11342428926E+02 0.11611408706E+02 0.11890189509E+02
 0.12100825990E+02 0.15719824399E+02 0.15547998086E+02 0.15067255042E+02 0.14371921681E+02
 0.13590923993E+02 0.12858513517E+02 0.12292053754E+02 0.11985062210E+02 0.12016810465E+02
 0.12467439771E+02 0.13416383006E+02 0.14907545010E+02 0.16892903790E+02 0.19196124218E+02
 0.21694911692E+02 0.24979295332E+02 0.28847049345E+02 0.32077230073E+02 0.33341288041E+02
 0.32077230073E+02 0.28847049345E+02 0.24979295332E+02 0.21694911692E+02 0.19196124218E+02
 0.16892903790E+02 0.14907545010E+02 0.13416383006E+02 0.12467439771E+02 0.12016810465E+02
 0.11985062210E+02 0.12292053754E+02 0.12858513517E+02 0.13590923993E+02 0.14371921681E+02
 0.15067255042E+02 0.15547998086E+02 0.20837386932E+02 0.20518921396E+02 0.19671192888E+02
 0.18458889101E+02 0.17001942194E+02 0.15500845852E+02 0.14154480349E+02 0.13114302217E+02
 0.12467439771E+02 0.12249206418E+02 0.12467439771E+02 0.13114302217E+02 0.14154480349E+02
 0.15500845852E+02 0.17001942194E+02 0.18458889101E+02 0.19671192888E+02 0.20518921396E+02
 0.20837386932E+02 0.20518921396E+02 0.19671192888E+02 0.18458889101E+02 0.17001942194E+02
 0.15500845852E+02 0.14154480349E+02 0.13114302217E+02 0.12467439771E+02 0.12249206418E+02
 0.12467439771E+02 0.13114302217E+02 0.14154480349E+02 0.15500845852E+02 0.17001942194E+02
 0.18458889101E+02 0.19671192888E+02 0.20518921396E+02 0.33341288041E+02 0.32077230073E+02
 0.28847049345E+02 0.24979295332E+02 0.21694911692E+02 0.19196124218E+02 0.16892903790E+02
 0.14907545010E+02 0.13416383006E+02 0.12467439771E+02 0.12016810465E+02 0.11985062210E+02
 0.12292053754E+02 0.12858513517E+02 0.13590923993E+02 0.14371921681E+02 0.15067255042E+02
 0.15547998086E+02 0.15719824399E+02 0.15547998086E+02 0.15067255042E+02 0.14371921681E+02
 0.13590923993E+02 0.12858513517E+02 0.12292053754E+02 0.11985062210E+02 0.12016810465E+02
 0.12467439771E+02 0.13416383006E+02 0.14907545010E+02 0.16892903790E+02 0.19196124218E+02
 0.21694911692E+02 0.24979295332E+02 0.28847049345E+02 0.32077230073E+02 0.68555649061E+02
 0.64959794892E+02 0.55470012558E+02 0.43354955926E+02 0.32300808530E+02 0.24684410876E+02
 0.20437650467E+02 0.17403158291E+02 0.14907545010E+02 0.13114302217E+02 0.11985062210E+02
 0.11377632763E+02 0.11142039167E+02 0.11160214917E+02 0.11342428926E+02 0.11611408706E+02
 0.11890189509E+02 0.12100825990E+02 0.12179492613E+02 0.12100825990E+02 0.11890189509E+02
 0.11611408706E+02 0.11342428926E+02 0.11160214917E+02 0.11142039167E+02 0.11377632763E+02
 0.11985062210E+02 0.13114302217E+02 0.14907545010E+02 0.17403158291E+02 0.20437650467E+02
 0.24684410876E+02 0.32300808530E+02 0.43354955926E+02 0.55470012558E+02 0.64959794892E+02
 0.13910151776E+03 0.13160965291E+03 0.11145104175E+03 0.84593418375E+02 0.58215847601E+02
 0.37969289060E+02 0.26014713314E+02 0.20437650467E+02 0.16892903790E+02 0.14154480349E+02
 0.12292053754E+02 0.11142039167E+02 0.10481995116E+02 0.10129960019E+02 0.99642140267E+01
 0.99109980267E+01 0.99227951948E+01 0.99571278102E+01 0.99744004203E+01 0.99571278102E+01
 0.99227951948E+01 0.99109980267E+01 0.99642140267E+01 0.10129960019E+02 0.10481995116E+02
 0.11142039167E+02 0.12292053754E+02 0.14154480349E+02 0.16892903790E+02 0.20437650467E+02
 0.26014713314E+02 0.37969289060E+02 0.58215847601E+02 0.84593418375E+02 0.11145104175E+03
 0.13160965291E+03 0.24935880107E+03 0.23649860437E+03 0.20152610683E+03 0.15380453263E+03
 0.10487702042E+03 0.64532177431E+02 0.37969289060E+02 0.24684410876E+02 0.19196124218E+02
 0.15500845852E+02 0.12858513517E+02 0.11160214917E+02 0.10129960019E+02 0.95118071238E+01
 0.91303077877E+01 0.88899630428E+01 0.87494744090E+01 0.86839387489E+01 0.86666210045E+01
 0.86839387489E+01 0.87494744090E+01 0.88899630428E+01 0.91303077877E+01 0.95118071238E+01
 0.10129960019E+02 0.11160214917E+02 0.12858513517E+02 0.15500845852E+02 0.19196124218E+02
 0.24684410876E+02 0.37969289060E+02 0.64532177431E+02 0.10487702042E+03 0.15380453263E+03
 0.20152610683E+03 0.23649860437E+03 0.39306421357E+03 0.37372027213E+03 0.32082716498E+03
 0.24771958708E+03 0.17092841349E+03 0.10487702042E+03 0.58215847601E+02 0.32300808530E+02
 0.21694911692E+02 0.17001942194E+02 0.13590923993E+02 0.11342428926E+02 0.99642140267E+01
 0.91303077877E+01 0.86022960986E+01 0.82493439187E+01 0.80222396955E+01 0.79016414467E+01
 0.78656206105E+01 0.79016414467E+01 0.80222396955E+01 0.82493439187E+01 0.86022960986E+01
 0.91303077877E+01 0.99642140267E+01 0.11342428926E+02 0.13590923993E+02 0.17001942194E+02
 0.21694911692E+02 0.32300808530E+02 0.58215847601E+02 0.10487702042E+03 0.17092841349E+03
 0.24771958708E+03 0.32082716498E+03 0.37372027213E+03 0.55276750924E+03 0.52649194388E+03
 0.45447086655E+03 0.35430214403E+03 0.24771958708E+03 0.15380453263E+03 0.84593418375E+02
 0.43354955926E+02 0.24979295332E+02 0.18458889101E+02 0.14371921681E+02 0.11611408706E+02
 0.99109980267E+01 0.88899630428E+01 0.82493439187E+01 0.78197828798E+01 0.75381419197E+01
 0.73844614863E+01 0.73375142005E+01 0.73844614863E+01 0.75381419197E+01 0.78197828798E+01
 0.82493439187E+01 0.88899630428E+01 0.99109980267E+01 0.11611408706E+02 0.14371921681E+02
 0.18458889101E+02 0.24979295332E+02 0.43354955926E+02 0.84593418375E+02 0.15380453263E+03
 0.24771958708E+03 0.35430214403E+03 0.45447086655E+03 0.52649194388E+03 0.70144406666E+03
 0.66881040111E+03 0.57929142521E+03 0.45447086655E+03 0.32082716498E+03 0.20152610683E+03
 0.11145104175E+03 0.55470012558E+02 0.28847049345E+02 0.19671192888E+02 0.15067255042E+02
 0.11890189509E+02 0.99227951948E+01 0.87494744090E+01 0.80222396955E+01 0.75381419197E+01
 0.72199807013E+01 0.70449766319E+01 0.69911350629E+01 0.70449766319E+01 0.72199807013E+01
 0.75381419197E+01 0.80222396955E+01 0.87494744090E+01 0.99227951948E+01 0.11890189509E+02
 0.15067255042E+02 0.19671192888E+02 0.28847049345E+02 0.55470012558E+02 0.11145104175E+03
 0.20152610683E+03 0.32082716498E+03 0.45447086655E+03 0.57929142521E+03 0.66881040111E+03
 0.80797675278E+03 0.77080062474E+03 0.66881040111E+03 0.52649194388E+03 0.37372027213E+03
 0.23649860437E+03 0.13160965291E+03 0.64959794892E+02 0.32077230073E+02 0.20518921396E+02
 0.15547998086E+02 0.12100825990E+02 0.99571278102E+01 0.86839387489E+01 0.79016414467E+01
 0.73844614863E+01 0.70449766319E+01 0.68577847599E+01 0.68000424548E+01 0.68577847599E+01
 0.70449766319E+01 0.73844614863E+01 0.79016414467E+01 0.86839387489E+01 0.99571278102E+01
 0.12100825990E+02 0.15547998086E+02 0.20518921396E+02 0.32077230073E+02 0.64959794892E+02
 0.13160965291E+03 0.23649860437E+03 0.37372027213E+03 0.52649194388E+03 0.66881040111E+03
 0.77080062474E+03 0.80797675278E+03 0.77080062474E+03 0.66881040111E+03 0.52649194388E+03
 0.37372027213E+03 0.23649860437E+03 0.13160965291E+03 0.64959794892E+02 0.32077230073E+02
 0.20518921396E+02 0.15547998086E+02 0.12100825990E+02 0.99571278102E+01 0.86839387489E+01
 0.79016414467E+01 0.73844614863E+01 0.70449766319E+01 0.68577847599E+01 0.68000424548E+01
 0.68577847599E+01 0.70449766319E+01 0.73844614863E+01 0.79016414467E+01 0.86839387489E+01
 0.99571278102E+01 0.12100825990E+02 0.15547998086E+02 0.20518921396E+02 0.32077230073E+02
 0.64959794892E+02 0.13160965291E+03 0.23649860437E+03 0.37372027213E+03 0.52649194388E+03
 0.66881040111E+03 0.77080062474E+03 0.77080062474E+03 0.73521082862E+03 0.63757283411E+03
 0.50135307745E+03 0.35523832990E+03 0.22424705678E+03 0.12451102837E+03 0.61585382149E+02
 0.30909265210E+02 0.20218316087E+02 0.15379595210E+02 0.12023723769E+02 0.99398175564E+01
 0.87003276384E+01 0.79363789945E+01 0.74300560606E+01 0.70975041222E+01 0.69142632577E+01
 0.68577847599E+01 0.69142632577E+01 0.70975041222E+01 0.74300560606E+01 0.79363789945E+01
 0.87003276384E+01 0.99398175564E+01 0.12023723769E+02 0.15379595210E+02 0.20218316087E+02
 0.30909265210E+02 0.61585382149E+02 0.12451102837E+03 0.22424705678E+03 0.35523832990E+03
 0.50135307745E+03 0.63757283411E+03 0.73521082862E+03 0.66881040111E+03 0.63757283411E+03
 0.55189093169E+03 0.43246345988E+03 0.30472420402E+03 0.19095359374E+03 0.10543184631E+03
 0.52695289373E+02 0.27930023442E+02 0.19406701197E+02 0.14908771741E+02 0.11817369814E+02
 0.99051388234E+01 0.87629703645E+01 0.80530579703E+01 0.75795885567E+01 0.72684370059E+01
 0.70975041222E+01 0.70449766319E+01 0.70975041222E+01 0.72684370059E+01 0.75795885567E+01
 0.80530579703E+01 0.87629703645E+01 0.99051388234E+01 0.11817369814E+02 0.14908771741E+02
 0.19406701197E+02 0.27930023442E+02 0.52695289373E+02 0.10543184631E+03 0.19095359374E+03
 0.30472420402E+03 0.43246345988E+03 0.55189093169E+03 0.63757283411E+03 0.52649194388E+03
 0.50135307745E+03 0.43246345988E+03 0.33671229271E+03 0.23497945553E+03 0.14559818379E+03
 0.80075893682E+02 0.41388081398E+02 0.24371028364E+02 0.18217866742E+02 0.14228789800E+02
 0.11544608862E+02 0.98922730141E+01 0.88985509651E+01 0.82736472940E+01 0.78542455801E+01
 0.75795885567E+01 0.74300560606E+01 0.73844614863E+01 0.74300560606E+01 0.75795885567E+01
 0.78542455801E+01 0.82736472940E+01 0.88985509651E+01 0.98922730141E+01 0.11544608862E+02
 0.14228789800E+02 0.18217866742E+02 0.24371028364E+02 0.41388081398E+02 0.80075893682E+02
 0.14559818379E+03 0.23497945553E+03 0.33671229271E+03 0.43246345988E+03 0.50135307745E+03
 0.37372027213E+03 0.35523832990E+03 0.30472420402E+03 0.23497945553E+03 0.16187594227E+03
 0.99238938115E+02 0.55284104840E+02 0.31133653262E+02 0.21334427707E+02 0.16789768773E+02
 0.13466713490E+02 0.11282139408E+02 0.99432800835E+01 0.91319412537E+01 0.86174252247E+01
 0.82736472940E+01 0.80530579703E+01 0.79363789945E+01 0.79016414467E+01 0.79363789945E+01
 0.80530579703E+01 0.82736472940E+01 0.86174252247E+01 0.91319412537E+01 0.99432800835E+01
 0.11282139408E+02 0.13466713490E+02 0.16789768773E+02 0.21334427707E+02 0.31133653262E+02
 0.55284104840E+02 0.99238938115E+02 0.16187594227E+03 0.23497945553E+03 0.30472420402E+03
 0.35523832990E+03 0.23649860437E+03 0.22424705678E+03 0.19095359374E+03 0.14559818379E+03
 0.99238938115E+02 0.61213269520E+02 0.36392644283E+02 0.24114624706E+02 0.18932676776E+02
 0.15323584748E+02 0.12754027085E+02 0.11105218016E+02 0.10104584678E+02 0.95032932760E+01
 0.91319412537E+01 0.88985509651E+01 0.87629703645E+01 0.87003276384E+01 0.86839387489E+01
 0.87003276384E+01 0.87629703645E+01 0.88985509651E+01 0.91319412537E+01 0.95032932760E+01
 0.10104584678E+02 0.11105218016E+02 0.12754027085E+02 0.15323584748E+02 0.18932676776E+02
 0.24114624706E+02 0.36392644283E+02 0.61213269520E+02 0.99238938115E+02 0.14559818379E+03
 0.19095359374E+03 0.22424705678E+03 0.13160965291E+03 0.12451102837E+03 0.10543184631E+03
 0.80075893682E+02 0.55284104840E+02 0.36392644283E+02 0.25344402537E+02 0.20145044645E+02
 0.16679136138E+02 0.14012992504E+02 0.12204548774E+02 0.11088525350E+02 0.10447266437E+02
 0.10104584678E+02 0.99432800835E+01 0.98922730141E+01 0.99051388234E+01 0.99398175564E+01
 0.99571278102E+01 0.99398175564E+01 0.99051388234E+01 0.98922730141E+01 0.99432800835E+01
 0.10104584678E+02 0.10447266437E+02 0.11088525350E+02 0.12204548774E+02 0.14012992504E+02
 0.16679136138E+02 0.20145044645E+02 0.25344402537E+02 0.36392644283E+02 0.55284104840E+02
 0.80075893682E+02 0.10543184631E+03 0.12451102837E+03 0.64959794892E+02 0.61585382149E+02
 0.52695289373E+02 0.41388081398E+02 0.31133653262E+02 0.24114624706E+02 0.20145044645E+02
 0.17176542187E+02 0.14745104637E+02 0.13003387967E+02 0.11907926003E+02 0.11318197260E+02
 0.11088525350E+02 0.11105218016E+02 0.11282139408E+02 0.11544608862E+02 0.11817369814E+02
 0.12023723769E+02 0.12100825990E+02 0.12023723769E+02 0.11817369814E+02 0.11544608862E+02
 0.11282139408E+02 0.11105218016E+02 0.11088525350E+02 0.11318197260E+02 0.11907926003E+02
 0.13003387967E+02 0.14745104637E+02 0.17176542187E+02 0.20145044645E+02 0.24114624706E+02
 0.31133653262E+02 0.41388081398E+02 0.52695289373E+02 0.61585382149E+02 0.32077230073E+02
 0.30909265210E+02 0.27930023442E+02 0.24371028364E+02 0.21334427707E+02 0.18932676776E+02
 0.16679136138E+02 0.14745104637E+02 0.13296962354E+02 0.12376865393E+02 0.11939714212E+02
 0.11907926003E+02 0.12204548774E+02 0.12754027085E+02 0.13466713490E+02 0.14228789800E+02
 0.14908771741E+02 0.15379595210E+02 0.15547998086E+02 0.15379595210E+02 0.14908771741E+02
 0.14228789800E+02 0.13466713490E+02 0.12754027085E+02 0.12204548774E+02 0.11907926003E+02
 0.11939714212E+02 0.12376865393E+02 0.13296962354E+02 0.14745104637E+02 0.16679136138E+02
 0.18932676776E+02 0.21334427707E+02 0.24371028364E+02 0.27930023442E+02 0.30909265210E+02
 0.20518921396E+02 0.20218316087E+02 0.19406701197E+02 0.18217866742E+02 0.16789768773E+02