   4   4   0   0
  0.1202626E+02  0.3636890E-09  0.3636890E-09  0.3636890E-09  0.5000000E-15
  1.000000000000000E-004
  CAR 
 Cu                                      
     45.44197165     -4.10439252  301      7.32048472      1.00000000
     -4.104  0.0000E+00  0.0000E+00
     -3.939  0.0000E+00  0.0000E+00
     -3.774  0.0000E+00  0.0000E+00
     -3.609  0.0000E+00  0.0000E+00
     -3.444  0.0000E+00  0.0000E+00
     -3.279  0.0000E+00  0.0000E+00
     -3.113  0.0000E+00  0.0000E+00
     -2.948  0.0000E+00  0.0000E+00
     -2.783  0.0000E+00  0.0000E+00
     -2.618  0.0000E+00  0.0000E+00
     -2.453  0.0000E+00  0.0000E+00
     -2.288  0.0000E+00  0.0000E+00
     -2.123  0.2495E-15  0.4120E-16
     -1.957  0.3492E-04  0.5767E-05
     -1.792  0.2258E-01  0.3735E-02
     -1.627  0.1229E+00  0.2403E-01
     -1.462  0.2163E+00  0.5976E-01
     -1.297  0.1810E+00  0.8965E-01
     -1.132  0.1379E+00  0.1124E+00
     -0.966  0.1971E+00  0.1450E+00
     -0.801  0.5276E+00  0.2321E+00
     -0.636  0.5101E+00  0.3164E+00
     -0.471  0.8760E-02  0.3178E+00
     -0.306  0.2926E+00  0.3662E+00
     -0.141  0.6970E+00  0.4813E+00
      0.024  0.5666E+00  0.5748E+00
      0.190  0.5709E+00  0.6691E+00
      0.355  0.1908E+00  0.7006E+00
      0.520  0.6174E+00  0.8026E+00
      0.685  0.1076E+01  0.9803E+00
      0.850  0.2800E-01  0.9849E+00
      1.015  0.7308E+00  0.1106E+01
      1.181  0.9399E+00  0.1261E+01
      1.346  0.9441E+00  0.1417E+01
      1.511  0.6223E+00  0.1520E+01
      1.676  0.1699E+01  0.1800E+01
      1.841  0.1945E+00  0.1832E+01
      2.006  0.7279E+00  0.1952E+01
      2.171  0.2488E+01  0.2363E+01
      2.337  0.1926E+01  0.2681E+01
      2.502  0.2344E+01  0.3068E+01
      2.667  0.3774E+01  0.3692E+01
      2.832  0.4729E+01  0.4473E+01
      2.997  0.5954E+01  0.5456E+01
      3.162  0.5612E+01  0.6383E+01
      3.328  0.9808E+01  0.8003E+01
      3.493  0.8595E+01  0.9422E+01
      3.658  0.9181E+01  0.1094E+02
      3.823  0.8070E+01  0.1227E+02
      3.988  0.1015E+02  0.1395E+02
      4.153  0.1246E+02  0.1601E+02
      4.318  0.1284E+02  0.1813E+02
      4.484  0.1631E+02  0.2082E+02
      4.649  0.1832E+02  0.2385E+02
      4.814  0.1130E+02  0.2571E+02
      4.979  0.1167E+02  0.2764E+02
      5.144  0.1531E+02  0.3017E+02
      5.309  0.1323E+02  0.3235E+02
      5.475  0.1382E+02  0.3463E+02
      5.640  0.1517E+02  0.3714E+02
      5.805  0.2077E+02  0.4057E+02
      5.970  0.9257E+01  0.4210E+02
      6.135  0.3580E+00  0.4216E+02
      6.300  0.2044E+01  0.4249E+02
      6.465  0.2128E+01  0.4285E+02
      6.631  0.1066E+01  0.4302E+02
      6.796  0.1542E+01  0.4328E+02
      6.961  0.6017E+00  0.4338E+02
      7.126  0.1557E+01  0.4363E+02
      7.291  0.1875E+01  0.4394E+02
      7.456  0.9913E+00  0.4411E+02
      7.622  0.1314E+01  0.4432E+02
      7.787  0.1035E+01  0.4450E+02
      7.952  0.5737E+00  0.4459E+02
      8.117  0.6910E+00  0.4470E+02
      8.282  0.2544E+01  0.4512E+02
      8.447  0.7390E+00  0.4525E+02
      8.613  0.4873E+00  0.4533E+02
      8.778  0.1755E+01  0.4562E+02
      8.943  0.6151E+00  0.4572E+02
      9.108  0.1187E+01  0.4591E+02
      9.273  0.2839E+00  0.4596E+02
      9.438  0.8781E+00  0.4611E+02
      9.603  0.2193E+01  0.4647E+02
      9.769  0.5787E+00  0.4656E+02
      9.934  0.1459E+01  0.4680E+02
     10.099  0.1233E-02  0.4680E+02
     10.264  0.4777E+00  0.4688E+02
     10.429  0.2856E+00  0.4693E+02
     10.594  0.6910E+00  0.4704E+02
     10.760  0.1406E+01  0.4728E+02
     10.925  0.1396E+01  0.4751E+02
     11.090  0.1422E+00  0.4753E+02
     11.255  0.9231E+00  0.4768E+02
     11.420  0.6501E+00  0.4779E+02
     11.585  0.1078E+01  0.4797E+02
     11.750  0.1458E+01  0.4821E+02
     11.916  0.1527E+01  0.4846E+02
     12.081  0.1715E+01  0.4875E+02
     12.246  0.5612E+00  0.4884E+02
     12.411  0.1183E+01  0.4903E+02
     12.576  0.9981E+00  0.4920E+02
     12.741  0.4747E+00  0.4928E+02
     12.907  0.1528E+01  0.4953E+02
     13.072  0.1165E+01  0.4972E+02
     13.237  0.9502E+00  0.4988E+02
     13.402  0.1202E+01  0.5008E+02
     13.567  0.4319E+00  0.5015E+02
     13.732  0.1750E+01  0.5044E+02
     13.897  0.1095E+01  0.5062E+02
     14.063  0.6251E+00  0.5072E+02
     14.228  0.4558E+00  0.5080E+02
     14.393  0.1448E+01  0.5104E+02
     14.558  0.1972E+01  0.5136E+02
     14.723  0.8186E+00  0.5150E+02
     14.888  0.6592E-01  0.5151E+02
     15.054  0.1278E+01  0.5172E+02
     15.219  0.7876E+00  0.5185E+02
     15.384  0.2298E+01  0.5223E+02
     15.549  0.1689E+01  0.5251E+02
     15.714  0.1177E+01  0.5270E+02
     15.879  0.5084E+00  0.5279E+02
     16.044  0.2194E+01  0.5315E+02
     16.210  0.1790E+01  0.5344E+02
     16.375  0.2177E+01  0.5380E+02
     16.540  0.1353E+01  0.5403E+02
     16.705  0.5408E+00  0.5412E+02
     16.870  0.1318E+01  0.5433E+02
     17.035  0.1589E+01  0.5460E+02
     17.201  0.2179E+01  0.5496E+02
     17.366  0.1108E+01  0.5514E+02
     17.531  0.2590E+01  0.5557E+02
     17.696  0.2368E+00  0.5561E+02
     17.861  0.1285E+01  0.5582E+02
     18.026  0.5413E+00  0.5591E+02
     18.191  0.2786E+01  0.5637E+02
     18.357  0.1622E+01  0.5664E+02
     18.522  0.2246E+01  0.5701E+02
     18.687  0.7146E+00  0.5712E+02
     18.852  0.7315E+00  0.5725E+02
     19.017  0.1188E+01  0.5744E+02
     19.182  0.1269E+01  0.5765E+02
     19.348  0.4013E+01  0.5831E+02
     19.513  0.1462E+01  0.5856E+02
     19.678  0.6751E+00  0.5867E+02
     19.843  0.2186E+01  0.5903E+02
     20.008  0.2246E+01  0.5940E+02
     20.173  0.1584E+01  0.5966E+02
     20.338  0.8240E+00  0.5980E+02
     20.504  0.2071E+01  0.6014E+02
     20.669  0.3716E+01  0.6075E+02
     20.834  0.6721E+00  0.6086E+02
     20.999  0.9228E+00  0.6102E+02
     21.164  0.1987E+01  0.6134E+02
     21.329  0.2609E+01  0.6177E+02
     21.495  0.8983E+00  0.6192E+02
     21.660  0.5450E+00  0.6201E+02
     21.825  0.1068E+01  0.6219E+02
     21.990  0.1808E+01  0.6249E+02
     22.155  0.2000E+01  0.6282E+02
     22.320  0.2981E+01  0.6331E+02
     22.485  0.1648E+01  0.6358E+02
     22.651  0.1390E+01  0.6381E+02
     22.816  0.1887E+01  0.6412E+02
     22.981  0.1572E+01  0.6438E+02
     23.146  0.1157E+01  0.6457E+02
     23.311  0.1015E+01  0.6474E+02
     23.476  0.1438E+01  0.6498E+02
     23.642  0.3715E+01  0.6559E+02
     23.807  0.2934E-01  0.6560E+02
     23.972  0.7888E+00  0.6573E+02
     24.137  0.1067E+01  0.6590E+02
     24.302  0.9783E+00  0.6607E+02
     24.467  0.1248E+01  0.6627E+02
     24.632  0.1616E+01  0.6654E+02
     24.798  0.1714E+01  0.6682E+02
     24.963  0.2287E+01  0.6720E+02
     25.128  0.9641E+00  0.6736E+02
     25.293  0.1045E+01  0.6753E+02
     25.458  0.9705E+00  0.6769E+02
     25.623  0.4472E+00  0.6777E+02
     25.789  0.1362E+00  0.6779E+02
     25.954  0.2742E+01  0.6824E+02
     26.119  0.1315E+01  0.6846E+02
     26.284  0.1525E+01  0.6871E+02
     26.449  0.1934E+01  0.6903E+02
     26.614  0.3324E+01  0.6958E+02
     26.780  0.2306E+01  0.6996E+02
     26.945  0.1464E+00  0.6998E+02
     27.110  0.8212E+00  0.7012E+02
     27.275  0.2458E+01  0.7053E+02
     27.440  0.1971E+01  0.7085E+02
     27.605  0.3363E+01  0.7141E+02
     27.770  0.2490E+01  0.7182E+02
     27.936  0.2500E+01  0.7223E+02
     28.101  0.8529E+00  0.7237E+02
     28.266  0.1370E+01  0.7260E+02
     28.431  0.3431E+01  0.7316E+02
     28.596  0.1314E+01  0.7338E+02
     28.761  0.3202E+01  0.7391E+02
     28.927  0.3456E+01  0.7448E+02
     29.092  0.8695E+00  0.7462E+02
     29.257  0.2011E+01  0.7496E+02
     29.422  0.3189E+01  0.7548E+02
     29.587  0.6677E+00  0.7559E+02
     29.752  0.3141E+01  0.7611E+02
     29.917  0.2892E+01  0.7659E+02
     30.083  0.8220E+00  0.7673E+02
     30.248  0.9786E+00  0.7689E+02
     30.413  0.2925E+01  0.7737E+02
     30.578  0.1210E+01  0.7757E+02
     30.743  0.2925E+01  0.7805E+02
     30.908  0.1333E+01  0.7827E+02
     31.074  0.2109E+01  0.7862E+02
     31.239  0.4734E+01  0.7940E+02
     31.404  0.1736E+01  0.7969E+02
     31.569  0.1470E+01  0.7993E+02
     31.734  0.1219E+00  0.7995E+02
     31.899  0.1085E+01  0.8013E+02
     32.064  0.1846E+01  0.8044E+02
     32.230  0.1507E+01  0.8069E+02
     32.395  0.7237E+00  0.8081E+02
     32.560  0.6627E+00  0.8092E+02
     32.725  0.2603E+00  0.8096E+02
     32.890  0.2220E+01  0.8132E+02
     33.055  0.2291E+01  0.8170E+02
     33.221  0.1680E+01  0.8198E+02
     33.386  0.1224E+01  0.8218E+02
     33.551  0.1150E+01  0.8237E+02
     33.716  0.1858E+01  0.8268E+02
     33.881  0.1154E+01  0.8287E+02
     34.046  0.3246E+01  0.8341E+02
     34.211  0.3047E+01  0.8391E+02
     34.377  0.1749E+01  0.8420E+02
     34.542  0.2740E+01  0.8465E+02
     34.707  0.2240E+01  0.8502E+02
     34.872  0.1604E+01  0.8529E+02
     35.037  0.2016E+01  0.8562E+02
     35.202  0.2055E+01  0.8596E+02
     35.368  0.1564E+01  0.8622E+02
     35.533  0.2713E+01  0.8666E+02
     35.698  0.2175E+01  0.8702E+02
     35.863  0.1148E+01  0.8721E+02
     36.028  0.2827E+01  0.8768E+02
     36.193  0.2977E+01  0.8817E+02
     36.358  0.5952E+00  0.8827E+02
     36.524  0.1579E+01  0.8853E+02
     36.689  0.2318E+01  0.8891E+02
     36.854  0.2785E+01  0.8937E+02
     37.019  0.6608E+00  0.8948E+02
     37.184  0.2229E+00  0.8952E+02
     37.349  0.3663E+01  0.9012E+02
     37.515  0.2619E+01  0.9056E+02
     37.680  0.1779E+01  0.9085E+02
     37.845  0.7105E+00  0.9097E+02
     38.010  0.7344E+00  0.9109E+02
     38.175  0.2924E+01  0.9157E+02
     38.340  0.2731E+01  0.9202E+02
     38.505  0.2665E+01  0.9246E+02
     38.671  0.1677E+01  0.9274E+02
     38.836  0.7515E+00  0.9286E+02
     39.001  0.2189E+01  0.9323E+02
     39.166  0.1821E+01  0.9353E+02
     39.331  0.2515E+01  0.9394E+02
     39.496  0.2500E+01  0.9436E+02
     39.662  0.1556E+01  0.9461E+02
     39.827  0.1114E+01  0.9480E+02
     39.992  0.1238E+01  0.9500E+02
     40.157  0.5904E+00  0.9510E+02
     40.322  0.9276E-01  0.9511E+02
     40.487  0.7694E+00  0.9524E+02
     40.652  0.1306E+01  0.9546E+02
     40.818  0.4630E+00  0.9553E+02
     40.983  0.6213E+00  0.9564E+02
     41.148  0.2596E+00  0.9568E+02
     41.313  0.7560E+00  0.9580E+02
     41.478  0.3184E+00  0.9586E+02
     41.643  0.1062E+00  0.9587E+02
     41.809  0.6208E-01  0.9588E+02
     41.974  0.5405E+00  0.9597E+02
     42.139  0.7906E-03  0.9597E+02
     42.304  0.2343E-10  0.9597E+02
     42.469  0.7580E-02  0.9597E+02
     42.634  0.1342E+00  0.9600E+02
     42.799  0.1578E-03  0.9600E+02
     42.965  0.2237E-11  0.9600E+02
     43.130  0.1057E-02  0.9600E+02
     43.295  0.2256E-01  0.9600E+02
     43.460  0.3492E-04  0.9600E+02
     43.625  0.0000E+00  0.9600E+02
     43.790  0.0000E+00  0.9600E+02
     43.956  0.0000E+00  0.9600E+02
     44.121  0.0000E+00  0.9600E+02
     44.286  0.0000E+00  0.9600E+02
     44.451  0.0000E+00  0.9600E+02
     44.616  0.0000E+00  0.9600E+02
     44.781  0.0000E+00  0.9600E+02
     44.947  0.0000E+00  0.9600E+02
     45.112  0.0000E+00  0.9600E+02
     45.277  0.0000E+00  0.9600E+02
     45.442  0.0000E+00  0.9600E+02
