    4    4    1    1
  0.1202626E+02  0.3636890E-09  0.3636890E-09  0.3636890E-09  0.5000000E-15
  1.000000000000000E-004
  CAR 
 Cu                                      
     44     35     48
 
  0.0000000E+00  0.0000000E+00  0.0000000E+00  0.1953125E-02
      1         -1.852285   1.000000
      2          2.600402   1.000000
      3          2.600402   1.000000
      4          2.600402   1.000000
      5          3.046717   1.000000
      6          3.046717   1.000000
      7          3.046717   1.000000
      8          4.403246   1.000000
      9          4.403246   1.000000
     10          4.403246   1.000000
     11          5.207841   1.000000
     12          5.207841   1.000000
     13          5.742279   1.000000
     14          5.742279   1.000000
     15          5.742279   1.000000
     16          5.893635   1.000000
     17          5.893635   1.000000
     18          5.893635   1.000000
     19          5.893635   1.000000
     20          5.893635   1.000000
     21          5.893635   1.000000
     22          8.873966   0.000000
     23          8.873966   0.000000
     24          8.873966   0.000000
     25         14.355361   0.000000
     26         14.355361   0.000000
     27         14.355361   0.000000
     28         20.303147   0.000000
     29         20.303147   0.000000
     30         20.303147   0.000000
     31         20.303147   0.000000
     32         20.303147   0.000000
     33         20.303147   0.000000
     34         24.757178   0.000000
     35         24.757178   0.000000
     36         24.757178   0.000000
     37         27.324815   0.000000
     38         27.324815   0.000000
     39         27.324815   0.000000
     40         29.813984   0.000000
     41         32.313994   0.000000
     42         32.313994   0.000000
     43         32.313994   0.000000
     44         34.795104   0.000000
     45         34.795104   0.000000
     46         34.795104   0.000000
     47         38.557671   0.000000
     48         43.189864   0.000000
 
  0.1250000E+00  0.6881458E-33  0.0000000E+00  0.1171875E-01
      1         -1.665077   1.000000
      2          2.593194   1.000000
      3          2.686005   1.000000
      4          2.686005   1.000000
      5          3.095576   1.000000
      6          3.098710   1.000000
      7          3.098710   1.000000
      8          4.348770   1.000000
      9          4.446539   1.000000
     10          4.446539   1.000000
     11          5.158281   1.000000
     12          5.227678   1.000000
     13          5.593806   1.000000
     14          5.593806   1.000000
     15          5.678458   1.000000
     16          5.678458   1.000000
     17          5.721443   1.000000
     18          5.818744   1.000000
     19          5.818744   1.000000
     20          5.893545   1.000000
     21          5.893545   1.000000
     22          7.844021   0.000000
     23          9.341950   0.000000
     24          9.341950   0.000000
     25         14.425493   0.000000
     26         14.425493   0.000000
     27         15.760082   0.000000
     28         19.199932   0.000000
     29         19.199932   0.000000
     30         19.557796   0.000000
     31         19.557796   0.000000
     32         20.577025   0.000000
     33         20.577025   0.000000
     34         24.838464   0.000000
     35         26.092859   0.000000
     36         26.092859   0.000000
     37         27.398011   0.000000
     38         28.478989   0.000000
     39         28.478989   0.000000
     40         29.194555   0.000000
     41         30.685368   0.000000
     42         30.685368   0.000000
     43         31.583613   0.000000
     44         35.812340   0.000000
     45         36.519492   0.000000
     46         36.519492   0.000000
     47         38.552448   0.000000
     48         40.963712   0.000000
 
  0.2500000E+00  0.1376292E-32  0.0000000E+00  0.1171875E-01
      1         -1.112761   1.000000
      2          2.477426   1.000000
      3          2.914571   1.000000
      4          2.914571   1.000000
      5          3.235985   1.000000
      6          3.256759   1.000000
      7          3.256759   1.000000
      8          4.194914   1.000000
      9          4.575069   1.000000
     10          4.575069   1.000000
     11          5.000705   1.000000
     12          5.000705   1.000000
     13          5.024138   1.000000
     14          5.284180   1.000000
     15          5.502610   1.000000
     16          5.502610   1.000000
     17          5.616306   1.000000
     18          5.616306   1.000000
     19          5.662312   1.000000
     20          5.893978   1.000000
     21          5.893978   1.000000
     22          6.168321   1.000000
     23         10.437786   0.000000
     24         10.437786   0.000000
     25         14.650733   0.000000
     26         14.650733   0.000000
     27         17.267211   0.000000
     28         17.267211   0.000000
     29         18.142449   0.000000
     30         18.142449   0.000000
     31         18.634791   0.000000
     32         21.372821   0.000000
     33         21.372821   0.000000
     34         25.087361   0.000000
     35         27.643414   0.000000
     36         28.060473   0.000000
     37         28.383038   0.000000
     38         28.383038   0.000000
     39         28.725765   0.000000
     40         28.725765   0.000000
     41         30.116831   0.000000
     42         31.095086   0.000000
     43         31.095086   0.000000
     44         35.070374   0.000000
     45         38.128904   0.000000
     46         39.079471   0.000000
     47         39.079471   0.000000
     48         42.526204   0.000000
 
  0.3750000E+00  0.4064077E-32  0.0000000E+00  0.1171875E-01
      1         -0.230841   1.000000
      2          1.936221   1.000000
      3          3.188608   1.000000
      4          3.188608   1.000000
      5          3.449512   1.000000
      6          3.525643   1.000000
      7          3.525643   1.000000
      8          3.968132   1.000000
      9          4.409193   1.000000
     10          4.409193   1.000000
     11          4.780113   1.000000
     12          4.780113   1.000000
     13          4.852873   1.000000
     14          5.054574   1.000000
     15          5.280761   1.000000
     16          5.280761   1.000000
     17          5.339079   1.000000
     18          5.339079   1.000000
     19          5.369713   1.000000
     20          5.574406   1.000000
     21          5.894265   1.000000
     22          5.894265   1.000000
     23         11.858400   0.000000
     24         11.858400   0.000000
     25         15.069429   0.000000
     26         15.069429   0.000000
     27         15.317949   0.000000
     28         15.317949   0.000000
     29         16.830946   0.000000
     30         16.830946   0.000000
     31         22.019206   0.000000
     32         22.626457   0.000000
     33         22.626457   0.000000
     34         25.518156   0.000000
     35         26.204000   0.000000
     36         26.204000   0.000000
     37         27.001626   0.000000
     38         28.146103   0.000000
     39         28.338913   0.000000
     40         31.369458   0.000000
     41         31.850887   0.000000
     42         31.850887   0.000000
     43         34.251885   0.000000
     44         34.251885   0.000000
     45         39.128940   0.000000
     46         39.128940   0.000000
     47         41.124008   0.000000
     48         41.619779   0.000000
 
  0.5000000E+00  0.2752583E-32  0.0000000E+00  0.5859375E-02
      1          0.881475   1.000000
      2          0.881475   1.000000
      3          3.324019   1.000000
      4          3.324019   1.000000
      5          3.706050   1.000000
      6          3.706050   1.000000
      7          3.910018   1.000000
      8          3.910018   1.000000
      9          3.910018   1.000000
     10          3.910018   1.000000
     11          4.762072   1.000000
     12          4.762072   1.000000
     13          5.045045   1.000000
     14          5.045045   1.000000
     15          5.045045   1.000000
     16          5.045045   1.000000
     17          5.166676   1.000000
     18          5.166676   1.000000
     19          5.471586   1.000000
     20          5.471586   1.000000
     21          5.894317   1.000000
     22          5.894317   1.000000
     23         13.499633   0.000000
     24         13.499633   0.000000
     25         13.499633   0.000000
     26         13.499633   0.000000
     27         15.582644   0.000000
     28         15.582644   0.000000
     29         15.998171   0.000000
     30         15.998171   0.000000
     31         24.261307   0.000000
     32         24.261307   0.000000
     33         24.261307   0.000000
     34         24.261307   0.000000
     35         25.526443   0.000000
     36         25.526443   0.000000
     37         26.150533   0.000000
     38         26.150533   0.000000
     39         29.131605   0.000000
     40         29.131605   0.000000
     41         35.331271   0.000000
     42         35.331271   0.000000
     43         35.331271   0.000000
     44         35.331271   0.000000
     45         36.458493   0.000000
     46         36.458493   0.000000
     47         40.938639   0.000000
     48         40.938639   0.000000
 
  0.1250000E+00  0.1250000E+00  0.0000000E+00  0.2343750E-01
      1         -1.479610   1.000000
      2          2.683661   1.000000
      3          2.683661   1.000000
      4          2.767043   1.000000
      5          3.145520   1.000000
      6          3.145520   1.000000
      7          3.146593   1.000000
      8          4.319943   1.000000
      9          4.467117   1.000000
     10          4.480108   1.000000
     11          5.146349   1.000000
     12          5.220679   1.000000
     13          5.402566   1.000000
     14          5.458676   1.000000
     15          5.458676   1.000000
     16          5.620709   1.000000
     17          5.688909   1.000000
     18          5.688909   1.000000
     19          5.818582   1.000000
     20          5.818582   1.000000
     21          5.845169   1.000000
     22          8.300920   0.000000
     23          8.300920   0.000000
     24          9.751007   0.000000
     25         14.496130   0.000000
     26         15.870962   0.000000
     27         15.870962   0.000000
     28         17.253436   0.000000
     29         19.444429   0.000000
     30         19.444429   0.000000
     31         19.804442   0.000000
     32         19.804442   0.000000
     33         20.835896   0.000000
     34         25.807311   0.000000
     35         26.206115   0.000000
     36         26.206115   0.000000
     37         27.811018   0.000000
     38         28.569587   0.000000
     39         28.569587   0.000000
     40         28.845743   0.000000
     41         30.077291   0.000000
     42         31.448000   0.000000
     43         32.842182   0.000000
     44         34.987557   0.000000
     45         35.666452   0.000000
     46         38.425799   0.000000
     47         39.409684   0.000000
     48         40.141107   0.000000
 
  0.2500000E+00  0.1250000E+00  0.0000000E+00  0.4687500E-01
      1         -0.932936   1.000000
      2          2.583140   1.000000
      3          2.926492   1.000000
      4          2.984121   1.000000
      5          3.279417   1.000000
      6          3.290153   1.000000
      7          3.296688   1.000000
      8          4.186420   1.000000
      9          4.571588   1.000000
     10          4.582230   1.000000
     11          4.864687   1.000000
     12          4.915601   1.000000
     13          5.041971   1.000000
     14          5.129657   1.000000
     15          5.284469   1.000000
     16          5.460039   1.000000
     17          5.513672   1.000000
     18          5.615335   1.000000
     19          5.628698   1.000000
     20          5.817492   1.000000
     21          5.819486   1.000000
     22          6.725891   1.000000
     23          9.274332   0.000000
     24         10.767970   0.000000
     25         14.670642   0.000000
     26         15.285054   0.000000
     27         16.218278   0.000000
     28         17.497539   0.000000
     29         18.351223   0.000000
     30         18.767265   0.000000
     31         20.147850   0.000000
     32         20.346927   0.000000
     33         20.525885   0.000000
     34         25.958609   0.000000
     35         26.554181   0.000000
     36         26.712768   0.000000
     37         27.369528   0.000000
     38         28.861064   0.000000
     39         28.865707   0.000000
     40         30.640563   0.000000
     41         31.183056   0.000000
     42         31.877272   0.000000
     43         32.938918   0.000000
     44         34.945923   0.000000
     45         36.552707   0.000000
     46         37.657082   0.000000
     47         40.835650   0.000000
     48         41.867998   0.000000
 
  0.3750000E+00  0.1250000E+00  0.0000000E+00  0.4687500E-01
      1         -0.061688   1.000000
      2          2.064728   1.000000
      3          3.224994   1.000000
      4          3.255442   1.000000
      5          3.482683   1.000000
      6          3.517565   1.000000
      7          3.553074   1.000000
      8          3.974388   1.000000
      9          4.298697   1.000000
     10          4.382305   1.000000
     11          4.646997   1.000000
     12          4.713709   1.000000
     13          4.782676   1.000000
     14          4.972427   1.000000
     15          5.257133   1.000000
     16          5.292012   1.000000
     17          5.338038   1.000000
     18          5.398908   1.000000
     19          5.447753   1.000000
     20          5.814692   1.000000
     21          5.816152   1.000000
     22          5.832231   1.000000
     23         10.466996   0.000000
     24         12.138247   0.000000
     25         13.374608   0.000000
     26         15.230337   0.000000
     27         15.552147   0.000000
     28         16.775754   0.000000
     29         17.067306   0.000000
     30         19.031948   0.000000
     31         21.235107   0.000000
     32         21.551257   0.000000
     33         22.277463   0.000000
     34         24.208490   0.000000
     35         24.762536   0.000000
     36         27.160495   0.000000
     37         29.248821   0.000000
     38         29.390915   0.000000
     39         29.438106   0.000000
     40         30.280776   0.000000
     41         31.996329   0.000000
     42         32.108034   0.000000
     43         34.132404   0.000000
     44         36.165478   0.000000
     45         38.422474   0.000000
     46         39.282529   0.000000
     47         39.350428   0.000000
     48         39.377908   0.000000
 
  0.5000000E+00  0.1250000E+00  0.0000000E+00  0.2343750E-01
      1          1.033202   1.000000
      2          1.033202   1.000000
      3          3.389287   1.000000
      4          3.389287   1.000000
      5          3.726478   1.000000
      6          3.726478   1.000000
      7          3.839713   1.000000
      8          3.839713   1.000000
      9          3.916988   1.000000
     10          3.916988   1.000000
     11          4.595484   1.000000
     12          4.595484   1.000000
     13          5.045106   1.000000
     14          5.045106   1.000000
     15          5.150184   1.000000
     16          5.150184   1.000000
     17          5.164628   1.000000
     18          5.164628   1.000000
     19          5.551268   1.000000
     20          5.551268   1.000000
     21          5.814830   1.000000
     22          5.814830   1.000000
     23         11.826754   0.000000
     24         11.826754   0.000000
     25         13.749892   0.000000
     26         13.749892   0.000000
     27         15.935576   0.000000
     28         15.935576   0.000000
     29         17.806370   0.000000
     30         17.806370   0.000000
     31         22.615503   0.000000
     32         22.615503   0.000000
     33         23.041105   0.000000
     34         23.041105   0.000000
     35         25.892697   0.000000
     36         25.892697   0.000000
     37         28.055056   0.000000
     38         28.055056   0.000000
     39         30.412511   0.000000
     40         30.412511   0.000000
     41         33.542845   0.000000
     42         33.542845   0.000000
     43         35.482595   0.000000
     44         35.482595   0.000000
     45         38.122526   0.000000
     46         38.122526   0.000000
     47         41.181755   0.000000
     48         41.181756   0.000000
 
  0.2500000E+00  0.2500000E+00  0.0000000E+00  0.2343750E-01
      1         -0.404590   1.000000
      2          2.870932   1.000000
      3          2.870932   1.000000
      4          3.165967   1.000000
      5          3.392362   1.000000
      6          3.410735   1.000000
      7          3.410735   1.000000
      8          4.123848   1.000000
      9          4.557391   1.000000
     10          4.557391   1.000000
     11          4.572275   1.000000
     12          4.646516   1.000000
     13          4.657669   1.000000
     14          5.006573   1.000000
     15          5.337063   1.000000
     16          5.371788   1.000000
     17          5.473682   1.000000
     18          5.473682   1.000000
     19          5.612988   1.000000
     20          5.612988   1.000000
     21          5.703187   1.000000
     22          7.585388   0.000000
     23          7.585388   0.000000
     24         11.651903   0.000000
     25         13.028288   0.000000
     26         15.069510   0.000000
     27         18.161034   0.000000
     28         18.161034   0.000000
     29         18.878091   0.000000
     30         18.878091   0.000000
     31         19.272124   0.000000
     32         19.272124   0.000000
     33         22.347647   0.000000
     34         23.923630   0.000000
     35         24.622530   0.000000
     36         26.430836   0.000000
     37         29.270259   0.000000
     38         29.270259   0.000000
     39         31.463291   0.000000
     40         31.463291   0.000000
     41         32.550607   0.000000
     42         33.611842   0.000000
     43         34.336943   0.000000
     44         35.080043   0.000000
     45         35.585323   0.000000
     46         35.928308   0.000000
     47         40.541360   0.000000
     48         40.541360   0.000000
 
  0.3750000E+00  0.2500000E+00  0.0000000E+00  0.4687500E-01
      1          0.431054   1.000000
      2          2.418494   1.000000
      3          3.243030   1.000000
      4          3.406428   1.000000
      5          3.526041   1.000000
      6          3.581898   1.000000
      7          3.629924   1.000000
      8          3.978113   1.000000
      9          4.077980   1.000000
     10          4.294267   1.000000
     11          4.339194   1.000000
     12          4.533658   1.000000
     13          4.810285   1.000000
     14          4.968818   1.000000
     15          5.177658   1.000000
     16          5.264557   1.000000
     17          5.319340   1.000000
     18          5.337773   1.000000
     19          5.573023   1.000000
     20          5.611676   1.000000
     21          5.639504   1.000000
     22          6.437814   1.000000
     23          8.582425   0.000000
     24         11.235518   0.000000
     25         12.918837   0.000000
     26         15.569876   0.000000
     27         16.225333   0.000000
     28         17.492091   0.000000
     29         19.193187   0.000000
     30         19.894082   0.000000
     31         19.924874   0.000000
     32         22.058099   0.000000
     33         22.110790   0.000000
     34         22.673439   0.000000
     35         22.761688   0.000000
     36         28.314408   0.000000
     37         29.959489   0.000000
     38         30.282692   0.000000
     39         31.974870   0.000000
     40         32.066711   0.000000
     41         32.432725   0.000000
     42         33.673469   0.000000
     43         33.767752   0.000000
     44         35.949103   0.000000
     45         37.546410   0.000000
     46         37.577377   0.000000
     47         38.910669   0.000000
     48         39.204490   0.000000
 
  0.5000000E+00  0.2500000E+00  0.0000000E+00  0.2343750E-01
      1          1.465484   1.000000
      2          1.465484   1.000000
      3          3.515621   1.000000
      4          3.515621   1.000000
      5          3.699924   1.000000
      6          3.699924   1.000000
      7          3.783035   1.000000
      8          3.783035   1.000000
      9          3.931890   1.000000
     10          3.931890   1.000000
     11          4.398000   1.000000
     12          4.398000   1.000000
     13          5.053639   1.000000
     14          5.053639   1.000000
     15          5.098136   1.000000
     16          5.098136   1.000000
     17          5.123513   1.000000
     18          5.123513   1.000000
     19          5.616725   1.000000
     20          5.616725   1.000000
     21          5.875032   1.000000
     22          5.875032   1.000000
     23          9.771179   0.000000
     24          9.771179   0.000000
     25         14.462349   0.000000
     26         14.462349   0.000000
     27         16.365454   0.000000
     28         16.365454   0.000000
     29         20.526018   0.000000
     30         20.526018   0.000000
     31         20.920511   0.000000
     32         20.920511   0.000000
     33         21.180220   0.000000
     34         21.180220   0.000000
     35         26.408679   0.000000
     36         26.408679   0.000000
     37         30.921913   0.000000
     38         30.921913   0.000000
     39         31.510047   0.000000
     40         31.510047   0.000000
     41         32.750329   0.000000
     42         32.750329   0.000000
     43         35.935519   0.000000
     44         35.935519   0.000000
     45         37.419237   0.000000
     46         37.419237   0.000000
     47         39.470486   0.000000
     48         39.470486   0.000000
 
  0.3750000E+00  0.3750000E+00  0.0000000E+00  0.2343750E-01
      1          1.193255   1.000000
      2          2.887035   1.000000
      3          2.887035   1.000000
      4          3.413453   1.000000
      5          3.702003   1.000000
      6          3.739630   1.000000
      7          3.739630   1.000000
      8          3.942897   1.000000
      9          4.063052   1.000000
     10          4.063052   1.000000
     11          4.138318   1.000000
     12          4.440948   1.000000
     13          4.889694   1.000000
     14          4.907362   1.000000
     15          5.052850   1.000000
     16          5.130866   1.000000
     17          5.130866   1.000000
     18          5.347839   1.000000
     19          5.347839   1.000000
     20          5.480094   1.000000
     21          5.889809   1.000000
     22          7.180179   0.999964
     23          7.180179   0.999964
     24          9.478978   0.000000
     25         14.087764   0.000000
     26         16.174715   0.000000
     27         17.271379   0.000000
     28         17.271379   0.000000
     29         18.333112   0.000000
     30         18.333112   0.000000
     31         20.246332   0.000000
     32         20.976674   0.000000
     33         23.396870   0.000000
     34         23.396870   0.000000
     35         24.657493   0.000000
     36         27.341328   0.000000
     37         30.977466   0.000000
     38         31.081878   0.000000
     39         32.835248   0.000000
     40         32.835248   0.000000
     41         33.154822   0.000000
     42         33.154822   0.000000
     43         34.551570   0.000000
     44         36.644652   0.000000
     45         36.771846   0.000000
     46         37.289258   0.000000
     47         37.289258   0.000000
     48         40.454090   0.000000
 
  0.5000000E+00  0.3750000E+00  0.0000000E+00  0.2343750E-01
      1          2.096024   1.000000
      2          2.096024   1.000000
      3          3.263893   1.000000
      4          3.263893   1.000000
      5          3.855328   1.000000
      6          3.855328   1.000000
      7          3.881439   1.000000
      8          3.881439   1.000000
      9          3.937687   1.000000
     10          3.937687   1.000000
     11          4.263125   1.000000
     12          4.263125   1.000000
     13          4.949635   1.000000
     14          4.949635   1.000000
     15          5.003431   1.000000
     16          5.003431   1.000000
     17          5.095016   1.000000
     18          5.095016   1.000000
     19          5.386618   1.000000
     20          5.386618   1.000000
     21          6.359169   1.000000
     22          6.359169   1.000000
     23          8.149384   0.000000
     24          8.149384   0.000000
     25         15.556480   0.000000
     26         15.556480   0.000000
     27         17.085788   0.000000
     28         17.085788   0.000000
     29         18.626088   0.000000
     30         18.626088   0.000000
     31         19.495322   0.000000
     32         19.495322   0.000000
     33         24.359196   0.000000
     34         24.359196   0.000000
     35         27.140578   0.000000
     36         27.140578   0.000000
     37         29.787697   0.000000
     38         29.787697   0.000000
     39         31.880612   0.000000
     40         31.880612   0.000000
     41         34.113823   0.000000
     42         34.113823   0.000000
     43         36.678718   0.000000
     44         36.678718   0.000000
     45         37.371473   0.000000
     46         37.371473   0.000000
     47         39.218784   0.000000
     48         39.218784   0.000000
 
  0.5000000E+00  0.5000000E+00  0.0000000E+00  0.5859375E-02
      1          2.757744   1.000000
      2          2.757744   1.000000
      3          2.757744   1.000000
      4          2.757744   1.000000
      5          3.913818   1.000000
      6          3.913818   1.000000
      7          3.913818   1.000000
      8          3.913818   1.000000
      9          4.117764   1.000000
     10          4.117764   1.000000
     11          4.117764   1.000000
     12          4.117764   1.000000
     13          4.890978   1.000000
     14          4.890978   1.000000
     15          4.890978   1.000000
     16          4.890978   1.000000
     17          5.201429   1.000000
     18          5.201429   1.000000
     19          5.201429   1.000000
     20          5.201429   1.000000
     21          7.052818   1.000000
     22          7.052818   1.000000
     23          7.052818   1.000000
     24          7.052818   1.000000
     25         16.959959   0.000000
     26         16.959959   0.000000
     27         16.959959   0.000000
     28         16.959959   0.000000
     29         18.124187   0.000000
     30         18.124187   0.000000
     31         18.124187   0.000000
     32         18.124187   0.000000
     33         27.604168   0.000000
     34         27.604168   0.000000
     35         27.604168   0.000000
     36         27.604168   0.000000
     37         28.823467   0.000000
     38         28.823467   0.000000
     39         28.823467   0.000000
     40         28.823467   0.000000
     41         37.248703   0.000000
     42         37.248703   0.000000
     43         37.248703   0.000000
     44         37.248703   0.000000
     45         38.242679   0.000000
     46         38.242679   0.000000
     47         38.242679   0.000000
     48         38.242679   0.000000
 
  0.1250000E+00  0.1250000E+00  0.1250000E+00  0.1562500E-01
      1         -1.296227   1.000000
      2          2.767647   1.000000
      3          2.767647   1.000000
      4          2.767647   1.000000
      5          3.191704   1.000000
      6          3.191704   1.000000
      7          3.191704   1.000000
      8          4.296214   1.000000
      9          4.493971   1.000000
     10          4.493971   1.000000
     11          5.179217   1.000000
     12          5.179217   1.000000
     13          5.284441   1.000000
     14          5.284441   1.000000
     15          5.284441   1.000000
     16          5.545760   1.000000
     17          5.545760   1.000000
     18          5.545760   1.000000
     19          5.835528   1.000000
     20          5.835528   1.000000
     21          5.835528   1.000000
     22          8.670973   0.000000
     23          8.670973   0.000000
     24          8.670973   0.000000
     25         15.982191   0.000000
     26         15.982191   0.000000
     27         15.982191   0.000000
     28         17.483739   0.000000
     29         17.483739   0.000000
     30         17.483739   0.000000
     31         21.098473   0.000000
     32         21.098473   0.000000
     33         21.098473   0.000000
     34         25.893302   0.000000
     35         25.893302   0.000000
     36         25.893302   0.000000
     37         25.973319   0.000000
     38         30.188233   0.000000
     39         30.188233   0.000000
     40         30.188233   0.000000
     41         30.396826   0.000000
     42         31.117333   0.000000
     43         31.117333   0.000000
     44         36.698199   0.000000
     45         36.702179   0.000000
     46         36.702179   0.000000
     47         39.801017   0.000000
     48         39.801017   0.000000
 
  0.2500000E+00  0.1250000E+00  0.1250000E+00  0.4687500E-01
      1         -0.756226   1.000000
      2          2.676782   1.000000
      3          2.992730   1.000000
      4          2.992730   1.000000
      5          3.322193   1.000000
      6          3.330179   1.000000
      7          3.330179   1.000000
      8          4.182415   1.000000