 vasp.6.4.3 19Mar24 (build Jun 26 2024 13:02:28) complex                        
  
 executed on             LinuxIFC date 2025.08.08  18:20:09
 running   48 mpi-ranks, on    4 nodes
 distrk:  each k-point on   48 cores,    1 groups
 distr:  one band on NCORE=   1 cores,   48 groups


--------------------------------------------------------------------------------------------------------


 INCAR:
   ENCUT = 384.07980000000003
   IBRION = -1
   ISMEAR = 0
   ISYM = 2
   LCHARG = True
   LWAVE = True
   SIGMA = 0.05
   SYSTEM = Cu

 POTCAR:  PAW_PBE Cu 22Jun2005                    
 -----------------------------------------------------------------------------
|                                                                             |
|           W    W    AA    RRRRR   N    N  II  N    N   GGGG   !!!           |
|           W    W   A  A   R    R  NN   N  II  NN   N  G    G  !!!           |
|           W    W  A    A  R    R  N N  N  II  N N  N  G       !!!           |
|           W WW W  AAAAAA  RRRRR   N  N N  II  N  N N  G  GGG   !            |
|           WW  WW  A    A  R   R   N   NN  II  N   NN  G    G                |
|           W    W  A    A  R    R  N    N  II  N    N   GGGG   !!!           |
|                                                                             |
|     For optimal performance we recommend to set                             |
|       NCORE = 2 up to number-of-cores-per-socket                            |
|     NCORE specifies how many cores store one orbital (NPAR=cpu/NCORE).      |
|     This setting can greatly improve the performance of VASP for DFT.       |
|     The default, NCORE=1 might be grossly inefficient on modern             |
|     multi-core architectures or massively parallel machines. Do your        |
|     own testing! More info at https://www.vasp.at/wiki/index.php/NCORE      |
|     Unfortunately you need to use the default for GW and RPA                |
|     calculations (for HF NCORE is supported but not extensively tested      |
|     yet).                                                                   |
|                                                                             |
 -----------------------------------------------------------------------------

 POTCAR:  PAW_PBE Cu 22Jun2005                    
   VRHFIN =Cu: d10 p1                                                                               
   LEXCH  = PE                                                                                      
   EATOM  =  1390.9808 eV,  102.2342 Ry                                                             
                                                                                                    
   TITEL  = PAW_PBE Cu 22Jun2005                                                                    
   LULTRA =        F    use ultrasoft PP ?                                                          
   IUNSCR =        1    unscreen: 0-lin 1-nonlin 2-no                                               
   RPACOR =    2.000    partial core radius                                                         
   POMASS =   63.546; ZVAL   =   11.000    mass and valenz                                          
   RCORE  =    2.300    outmost cutoff radius                                                       
   RWIGS  =    2.200; RWIGS  =    1.164    wigner-seitz radius (au A)                               
   ENMAX  =  295.446; ENMIN  =  221.585 eV                                                          
   ICORE  =        3    local potential                                                             
   LCOR   =        T    correct aug charges                                                         
   LPAW   =        T    paw PP                                                                      
   EAUG   =  586.980                                                                                
   DEXC   =    0.000                                                                                
   RMAX   =    2.344    core radius for proj-oper                                                   
   RAUG   =    1.300    factor for augmentation sphere                                              
   RDEP   =    2.302    radius for radial grids                                                     
   RDEPT  =    1.771    core radius for aug-charge                                                  
                                                                                                    
   Atomic configuration                                                                             
    9 entries                                                                                       
     n  l   j            E        occ.                                                              
     1  0  0.50     -8850.2468   2.0000                                                             
     2  0  0.50     -1062.3498   2.0000                                                             
     2  1  1.50      -916.8226   6.0000                                                             
     3  0  0.50      -114.6929   2.0000                                                             
     3  1  1.50       -72.1325   6.0000                                                             
     3  2  2.50        -5.0394  10.0000                                                             
     4  0  0.50        -4.6097   1.0000                                                             
     4  1  0.50        -4.0817   0.0000                                                             
     4  3  2.50        -1.3606   0.0000                                                             
   Description                                                                                      
     l       E           TYP  RCUT    TYP  RCUT                                                     
     2     -5.0393973     23  2.200                                                                 
     2     10.8846608     23  2.200                                                                 
     0     -4.6097109     23  2.200                                                                 
     0      8.2520465     23  2.200                                                                 
     1     -2.7211652     23  2.200                                                                 
     1     21.7055443     23  2.200                                                                 
     3      2.7211652     23  2.300                                                                 
  local pseudopotential read in
  partial core-charges read in
  partial kinetic energy density read in
  atomic valenz-charges read in
  non local Contribution for L=           2  read in
    real space projection operators read in
  non local Contribution for L=           2  read in
    real space projection operators read in
  non local Contribution for L=           0  read in
    real space projection operators read in
  non local Contribution for L=           0  read in
    real space projection operators read in
  non local Contribution for L=           1  read in
    real space projection operators read in
  non local Contribution for L=           1  read in
    real space projection operators read in
    PAW grid and wavefunctions read in
 
   number of l-projection  operators is LMAX  =           6
   number of lm-projection operators is LMMAX =          18
 
PAW_PBE Cu 22Jun2005                    :
 energy of atom  1       EATOM=-1390.9808
 kinetic energy error for atom=    0.0280 (will be added to EATOM!!)
 
 
 POSCAR: Cu4
  positions in direct lattice
  No initial velocities read in


 exchange-correlation table for PE
   RHO(1)=    0.500       N(1)  =     2000
   RHO(2)=  100.500       N(2)  =     4000
 


--------------------------------------------------------------------------------------------------------


 ion  position               nearest neighbor table
   1  0.000  0.000  0.000-   2 2.57   3 2.57   2 2.57   3 2.57   2 2.57   4 2.57   2 2.57   3 2.57
                             4 2.57   3 2.57   4 2.57   4 2.57
   2  0.000  0.500  0.500-   1 2.57   4 2.57   1 2.57   4 2.57   1 2.57   3 2.57   1 2.57   3 2.57
                             4 2.57   4 2.57   3 2.57   3 2.57
   3  0.500  0.000  0.500-   1 2.57   4 2.57   1 2.57   4 2.57   2 2.57   4 2.57   4 2.57   1 2.57
                             2 2.57   1 2.57   2 2.57   2 2.57
   4  0.500  0.500  0.000-   2 2.57   3 2.57   2 2.57   3 2.57   1 2.57   3 2.57   3 2.57   1 2.57
                             2 2.57   2 2.57   1 2.57   1 2.57
 
  LATTYP: Found a simple cubic cell.
 ALAT       =     3.6368900000
  
  Lattice vectors:
  
 A1 = (   3.6368900000,   0.0000000000,   0.0000000000)
 A2 = (   0.0000000000,   3.6368900000,   0.0000000000)
 A3 = (   0.0000000000,   0.0000000000,   3.6368900000)


Analysis of symmetry for initial positions (statically):
=====================================================================
 Subroutine PRICEL returns following result:
 
  LATTYP: Found a face centered cubic cell.
 ALAT       =     3.6368900000
  
  Lattice vectors:
  
 A1 = (   1.8184450000,  -1.8184450000,   0.0000000000)
 A2 = (   1.8184450000,   0.0000000000,   1.8184450000)
 A3 = (  -0.0000000000,  -1.8184450000,   1.8184450000)
 
   4 primitive cells build up your supercell.
 

 Routine SETGRP: Setting up the symmetry group for a 
 simple cubic supercell.


 Subroutine GETGRP returns: Found 48 space group operations
 (whereof 48 operations were pure point group operations)
 out of a pool of 48 trial point group operations.


The static configuration has the point symmetry O_h .


Analysis of symmetry for dynamics (positions and initial velocities):
=====================================================================
 Subroutine PRICEL returns following result:
 
  LATTYP: Found a face centered cubic cell.
 ALAT       =     3.6368900000
  
  Lattice vectors:
  
 A1 = (   1.8184450000,  -1.8184450000,   0.0000000000)
 A2 = (   1.8184450000,   0.0000000000,   1.8184450000)
 A3 = (  -0.0000000000,  -1.8184450000,   1.8184450000)
 
   4 primitive cells build up your supercell.
 

 Routine SETGRP: Setting up the symmetry group for a 
 simple cubic supercell.


 Subroutine GETGRP returns: Found 48 space group operations
 (whereof 48 operations were pure point group operations)
 out of a pool of 48 trial point group operations.


The dynamic configuration has the point symmetry O_h .


 Subroutine INISYM returns: Found 48 space group operations
 (whereof 48 operations are pure point group operations),
 and found     4 'primitive' translations


----------------------------------------------------------------------------------------

                                     Primitive cell                                     

  volume of cell :      12.0263

  direct lattice vectors                    reciprocal lattice vectors
     1.818445000 -1.818445000  0.000000000     0.274960200 -0.274960200 -0.274960200
     1.818445000  0.000000000  1.818445000     0.274960200  0.274960200  0.274960200
    -0.000000000 -1.818445000  1.818445000    -0.274960200 -0.274960200  0.274960200

  length of vectors
     2.571669581  2.571669581  2.571669581     0.476245036  0.476245036  0.476245036

  position of ions in fractional coordinates (direct lattice)
     0.000000000  0.000000000  0.000000000

  ion indices of the primitive-cell ions
   primitive index   ion index
                 1           1

----------------------------------------------------------------------------------------

 
 
 KPOINTS: Automatic kpoint scheme                 

Automatic generation of k-mesh.
 Grid dimensions read from file:
 generate k-points for:    8    8    8

 Generating k-lattice:

  Cartesian coordinates                     Fractional coordinates (reciprocal lattice)
     0.034370025 -0.000000000  0.000000000     0.125000000  0.000000000  0.000000000
     0.000000000  0.034370025  0.000000000     0.000000000  0.125000000  0.000000000
    -0.000000000 -0.000000000  0.034370025     0.000000000 -0.000000000  0.125000000

  Length of vectors
     0.034370025  0.034370025  0.034370025

  Shift w.r.t. Gamma in fractional coordinates (k-lattice)
     0.000000000  0.000000000  0.000000000

 
 Subroutine IBZKPT returns following result:
 ===========================================
 
 Found     35 irreducible k-points:
 
 Following reciprocal coordinates:
            Coordinates               Weight
  0.000000  0.000000  0.000000      1.000000
  0.125000  0.000000  0.000000      6.000000
  0.250000  0.000000  0.000000      6.000000
  0.375000  0.000000  0.000000      6.000000
  0.500000  0.000000  0.000000      3.000000
  0.125000  0.125000  0.000000     12.000000
  0.250000  0.125000  0.000000     24.000000
  0.375000  0.125000  0.000000     24.000000
  0.500000  0.125000  0.000000     12.000000
  0.250000  0.250000  0.000000     12.000000
  0.375000  0.250000  0.000000     24.000000
  0.500000  0.250000  0.000000     12.000000
  0.375000  0.375000  0.000000     12.000000
  0.500000  0.375000  0.000000     12.000000
  0.500000  0.500000  0.000000      3.000000
  0.125000  0.125000  0.125000      8.000000
  0.250000  0.125000  0.125000     24.000000
  0.375000  0.125000  0.125000     24.000000
  0.500000  0.125000  0.125000     12.000000
  0.250000  0.250000  0.125000     24.000000
  0.375000  0.250000  0.125000     48.000000
  0.500000  0.250000  0.125000     24.000000
  0.375000  0.375000  0.125000     24.000000
  0.500000  0.375000  0.125000     24.000000
  0.500000  0.500000  0.125000      6.000000
  0.250000  0.250000  0.250000      8.000000
  0.375000  0.250000  0.250000     24.000000
  0.500000  0.250000  0.250000     12.000000
  0.375000  0.375000  0.250000     24.000000
  0.500000  0.375000  0.250000     24.000000
  0.500000  0.500000  0.250000      6.000000
  0.375000  0.375000  0.375000      8.000000
  0.500000  0.375000  0.375000     12.000000
  0.500000  0.500000  0.375000      6.000000
  0.500000  0.500000  0.500000      1.000000
 
 Following cartesian coordinates:
            Coordinates               Weight
  0.000000  0.000000  0.000000      1.000000
  0.034370 -0.000000  0.000000      6.000000
  0.068740 -0.000000  0.000000      6.000000
  0.103110 -0.000000  0.000000      6.000000
  0.137480 -0.000000  0.000000      3.000000
  0.034370  0.034370  0.000000     12.000000
  0.068740  0.034370  0.000000     24.000000
  0.103110  0.034370  0.000000     24.000000
  0.137480  0.034370  0.000000     12.000000
  0.068740  0.068740  0.000000     12.000000
  0.103110  0.068740  0.000000     24.000000
  0.137480  0.068740  0.000000     12.000000
  0.103110  0.103110  0.000000     12.000000
  0.137480  0.103110  0.000000     12.000000
  0.137480  0.137480  0.000000      3.000000
  0.034370  0.034370  0.034370      8.000000
  0.068740  0.034370  0.034370     24.000000
  0.103110  0.034370  0.034370     24.000000
  0.137480  0.034370  0.034370     12.000000
  0.068740  0.068740  0.034370     24.000000
  0.103110  0.068740  0.034370     48.000000
  0.137480  0.068740  0.034370     24.000000
  0.103110  0.103110  0.034370     24.000000
  0.137480  0.103110  0.034370     24.000000
  0.137480  0.137480  0.034370      6.000000
  0.068740  0.068740  0.068740      8.000000
  0.103110  0.068740  0.068740     24.000000
  0.137480  0.068740  0.068740     12.000000
  0.103110  0.103110  0.068740     24.000000
  0.137480  0.103110  0.068740     24.000000
  0.137480  0.137480  0.068740      6.000000
  0.103110  0.103110  0.103110      8.000000
  0.137480  0.103110  0.103110     12.000000
  0.137480  0.137480  0.103110      6.000000
  0.137480  0.137480  0.137480      1.000000
 
 
 Subroutine IBZKPT_HF returns following result:
 ==============================================
 
 Found    512 k-points in 1st BZ
 the following    512 k-points will be used (e.g. in the exchange kernel)
 Following reciprocal coordinates:   # in IRBZ
  0.000000  0.000000  0.000000    0.00195312   1 t-inv F
  0.125000  0.000000  0.000000    0.00195312   2 t-inv F
  0.250000  0.000000  0.000000    0.00195312   3 t-inv F
  0.375000  0.000000  0.000000    0.00195312   4 t-inv F
  0.500000  0.000000  0.000000    0.00195312   5 t-inv F
  0.125000  0.125000  0.000000    0.00195312   6 t-inv F
  0.250000  0.125000  0.000000    0.00195312   7 t-inv F
  0.375000  0.125000  0.000000    0.00195312   8 t-inv F
  0.500000  0.125000  0.000000    0.00195312   9 t-inv F
  0.250000  0.250000  0.000000    0.00195312  10 t-inv F
  0.375000  0.250000  0.000000    0.00195312  11 t-inv F
  0.500000  0.250000  0.000000    0.00195312  12 t-inv F
  0.375000  0.375000  0.000000    0.00195312  13 t-inv F
  0.500000  0.375000  0.000000    0.00195312  14 t-inv F
  0.500000  0.500000  0.000000    0.00195312  15 t-inv F
  0.125000  0.125000  0.125000    0.00195312  16 t-inv F
  0.250000  0.125000  0.125000    0.00195312  17 t-inv F
  0.375000  0.125000  0.125000    0.00195312  18 t-inv F
  0.500000  0.125000  0.125000    0.00195312  19 t-inv F
  0.250000  0.250000  0.125000    0.00195312  20 t-inv F
  0.375000  0.250000  0.125000    0.00195312  21 t-inv F
  0.500000  0.250000  0.125000    0.00195312  22 t-inv F
  0.375000  0.375000  0.125000    0.00195312  23 t-inv F
  0.500000  0.375000  0.125000    0.00195312  24 t-inv F
  0.500000  0.500000  0.125000    0.00195312  25 t-inv F
  0.250000  0.250000  0.250000    0.00195312  26 t-inv F
  0.375000  0.250000  0.250000    0.00195312  27 t-inv F
  0.500000  0.250000  0.250000    0.00195312  28 t-inv F
  0.375000  0.375000  0.250000    0.00195312  29 t-inv F
  0.500000  0.375000  0.250000    0.00195312  30 t-inv F
  0.500000  0.500000  0.250000    0.00195312  31 t-inv F
  0.375000  0.375000  0.375000    0.00195312  32 t-inv F
  0.500000  0.375000  0.375000    0.00195312  33 t-inv F
  0.500000  0.500000  0.375000    0.00195312  34 t-inv F
  0.500000  0.500000  0.500000    0.00195312  35 t-inv F
 -0.125000 -0.000000  0.000000    0.00195312   2 t-inv F
  0.000000  0.125000  0.000000    0.00195312   2 t-inv F
  0.000000 -0.125000 -0.000000    0.00195312   2 t-inv F
  0.000000  0.000000  0.125000    0.00195312   2 t-inv F
 -0.000000  0.000000 -0.125000    0.00195312   2 t-inv F
 -0.250000 -0.000000  0.000000    0.00195312   3 t-inv F
  0.000000  0.250000  0.000000    0.00195312   3 t-inv F
  0.000000 -0.250000 -0.000000    0.00195312   3 t-inv F
  0.000000  0.000000  0.250000    0.00195312   3 t-inv F
 -0.000000  0.000000 -0.250000    0.00195312   3 t-inv F
 -0.375000 -0.000000  0.000000    0.00195312   4 t-inv F
  0.000000  0.375000  0.000000    0.00195312   4 t-inv F
  0.000000 -0.375000 -0.000000    0.00195312   4 t-inv F
  0.000000  0.000000  0.375000    0.00195312   4 t-inv F
 -0.000000  0.000000 -0.375000    0.00195312   4 t-inv F
  0.000000  0.500000  0.000000    0.00195312   5 t-inv F
  0.000000  0.000000  0.500000    0.00195312   5 t-inv F
 -0.125000 -0.125000  0.000000    0.00195312   6 t-inv F
  0.000000  0.125000  0.125000    0.00195312   6 t-inv F
  0.000000 -0.125000 -0.125000    0.00195312   6 t-inv F
  0.125000  0.000000  0.125000    0.00195312   6 t-inv F
 -0.125000  0.000000 -0.125000    0.00195312   6 t-inv F
 -0.125000  0.125000  0.000000    0.00195312   6 t-inv F
  0.125000 -0.125000  0.000000    0.00195312   6 t-inv F
 -0.125000  0.000000  0.125000    0.00195312   6 t-inv F
  0.125000  0.000000 -0.125000    0.00195312   6 t-inv F
  0.000000 -0.125000  0.125000    0.00195312   6 t-inv F
  0.000000  0.125000 -0.125000    0.00195312   6 t-inv F
 -0.250000 -0.125000  0.000000    0.00195312   7 t-inv F
  0.000000  0.250000  0.125000    0.00195312   7 t-inv F
  0.000000 -0.250000 -0.125000    0.00195312   7 t-inv F
  0.125000  0.000000  0.250000    0.00195312   7 t-inv F
 -0.125000  0.000000 -0.250000    0.00195312   7 t-inv F
 -0.125000  0.250000  0.000000    0.00195312   7 t-inv F
  0.125000 -0.250000  0.000000    0.00195312   7 t-inv F
 -0.250000  0.000000  0.125000    0.00195312   7 t-inv F
  0.250000  0.000000 -0.125000    0.00195312   7 t-inv F
  0.000000  0.125000  0.250000    0.00195312   7 t-inv F
  0.000000 -0.125000 -0.250000    0.00195312   7 t-inv F
  0.000000 -0.250000  0.125000    0.00195312   7 t-inv F
  0.000000  0.250000 -0.125000    0.00195312   7 t-inv F
 -0.125000  0.000000  0.250000    0.00195312   7 t-inv F
  0.125000  0.000000 -0.250000    0.00195312   7 t-inv F
  0.250000  0.000000  0.125000    0.00195312   7 t-inv F
 -0.250000  0.000000 -0.125000    0.00195312   7 t-inv F
  0.000000 -0.125000  0.250000    0.00195312   7 t-inv F
  0.000000  0.125000 -0.250000    0.00195312   7 t-inv F
  0.250000 -0.125000  0.000000    0.00195312   7 t-inv F
 -0.250000  0.125000  0.000000    0.00195312   7 t-inv F
  0.125000  0.250000  0.000000    0.00195312   7 t-inv F
 -0.125000 -0.250000  0.000000    0.00195312   7 t-inv F
 -0.375000 -0.125000  0.000000    0.00195312   8 t-inv F
  0.000000  0.375000  0.125000    0.00195312   8 t-inv F
  0.000000 -0.375000 -0.125000    0.00195312   8 t-inv F
  0.125000  0.000000  0.375000    0.00195312   8 t-inv F
 -0.125000  0.000000 -0.375000    0.00195312   8 t-inv F
 -0.125000  0.375000  0.000000    0.00195312   8 t-inv F
  0.125000 -0.375000  0.000000    0.00195312   8 t-inv F
 -0.375000  0.000000  0.125000    0.00195312   8 t-inv F
  0.375000  0.000000 -0.125000    0.00195312   8 t-inv F
  0.000000  0.125000  0.375000    0.00195312   8 t-inv F
  0.000000 -0.125000 -0.375000    0.00195312   8 t-inv F
  0.000000 -0.375000  0.125000    0.00195312   8 t-inv F
  0.000000  0.375000 -0.125000    0.00195312   8 t-inv F
 -0.125000  0.000000  0.375000    0.00195312   8 t-inv F
  0.125000  0.000000 -0.375000    0.00195312   8 t-inv F
  0.375000  0.000000  0.125000    0.00195312   8 t-inv F
 -0.375000  0.000000 -0.125000    0.00195312   8 t-inv F
  0.000000 -0.125000  0.375000    0.00195312   8 t-inv F
  0.000000  0.125000 -0.375000    0.00195312   8 t-inv F
  0.375000 -0.125000  0.000000    0.00195312   8 t-inv F
 -0.375000  0.125000  0.000000    0.00195312   8 t-inv F
  0.125000  0.375000  0.000000    0.00195312   8 t-inv F
 -0.125000 -0.375000  0.000000    0.00195312   8 t-inv F
 -0.500000 -0.125000  0.000000    0.00195312   9 t-inv F
  0.000000  0.500000  0.125000    0.00195312   9 t-inv F
  0.000000 -0.500000 -0.125000    0.00195312   9 t-inv F
  0.125000  0.000000  0.500000    0.00195312   9 t-inv F
 -0.125000  0.000000 -0.500000    0.00195312   9 t-inv F
 -0.125000  0.500000  0.000000    0.00195312   9 t-inv F
  0.125000 -0.500000  0.000000    0.00195312   9 t-inv F
 -0.500000  0.000000  0.125000    0.00195312   9 t-inv F
  0.500000  0.000000 -0.125000    0.00195312   9 t-inv F
  0.000000  0.125000  0.500000    0.00195312   9 t-inv F
  0.000000 -0.125000 -0.500000    0.00195312   9 t-inv F
 -0.250000 -0.250000  0.000000    0.00195312  10 t-inv F
  0.000000  0.250000  0.250000    0.00195312  10 t-inv F
  0.000000 -0.250000 -0.250000    0.00195312  10 t-inv F
  0.250000  0.000000  0.250000    0.00195312  10 t-inv F
 -0.250000  0.000000 -0.250000    0.00195312  10 t-inv F
 -0.250000  0.250000  0.000000    0.00195312  10 t-inv F
  0.250000 -0.250000  0.000000    0.00195312  10 t-inv F
 -0.250000  0.000000  0.250000    0.00195312  10 t-inv F
  0.250000  0.000000 -0.250000    0.00195312  10 t-inv F
  0.000000 -0.250000  0.250000    0.00195312  10 t-inv F
  0.000000  0.250000 -0.250000    0.00195312  10 t-inv F
 -0.375000 -0.250000  0.000000    0.00195312  11 t-inv F
  0.000000  0.375000  0.250000    0.00195312  11 t-inv F
  0.000000 -0.375000 -0.250000    0.00195312  11 t-inv F
  0.250000  0.000000  0.375000    0.00195312  11 t-inv F
 -0.250000  0.000000 -0.375000    0.00195312  11 t-inv F
 -0.250000  0.375000  0.000000    0.00195312  11 t-inv F
  0.250000 -0.375000  0.000000    0.00195312  11 t-inv F
 -0.375000  0.000000  0.250000    0.00195312  11 t-inv F
  0.375000  0.000000 -0.250000    0.00195312  11 t-inv F
  0.000000  0.250000  0.375000    0.00195312  11 t-inv F
  0.000000 -0.250000 -0.375000    0.00195312  11 t-inv F
  0.000000 -0.375000  0.250000    0.00195312  11 t-inv F
  0.000000  0.375000 -0.250000    0.00195312  11 t-inv F
 -0.250000  0.000000  0.375000    0.00195312  11 t-inv F
  0.250000  0.000000 -0.375000    0.00195312  11 t-inv F
  0.375000  0.000000  0.250000    0.00195312  11 t-inv F
 -0.375000  0.000000 -0.250000    0.00195312  11 t-inv F
  0.000000 -0.250000  0.375000    0.00195312  11 t-inv F
  0.000000  0.250000 -0.375000    0.00195312  11 t-inv F
  0.375000 -0.250000  0.000000    0.00195312  11 t-inv F
 -0.375000  0.250000  0.000000    0.00195312  11 t-inv F
  0.250000  0.375000  0.000000    0.00195312  11 t-inv F
 -0.250000 -0.375000  0.000000    0.00195312  11 t-inv F
 -0.500000 -0.250000  0.000000    0.00195312  12 t-inv F
  0.000000  0.500000  0.250000    0.00195312  12 t-inv F
  0.000000 -0.500000 -0.250000    0.00195312  12 t-inv F
  0.250000  0.000000  0.500000    0.00195312  12 t-inv F
 -0.250000  0.000000 -0.500000    0.00195312  12 t-inv F
 -0.250000  0.500000  0.000000    0.00195312  12 t-inv F
  0.250000 -0.500000  0.000000    0.00195312  12 t-inv F
 -0.500000  0.000000  0.250000    0.00195312  12 t-inv F
  0.500000  0.000000 -0.250000    0.00195312  12 t-inv F
  0.000000  0.250000  0.500000    0.00195312  12 t-inv F
  0.000000 -0.250000 -0.500000    0.00195312  12 t-inv F
 -0.375000 -0.375000  0.000000    0.00195312  13 t-inv F
  0.000000  0.375000  0.375000    0.00195312  13 t-inv F
  0.000000 -0.375000 -0.375000    0.00195312  13 t-inv F
  0.375000  0.000000  0.375000    0.00195312  13 t-inv F
 -0.375000  0.000000 -0.375000    0.00195312  13 t-inv F
 -0.375000  0.375000  0.000000    0.00195312  13 t-inv F
  0.375000 -0.375000  0.000000    0.00195312  13 t-inv F
 -0.375000  0.000000  0.375000    0.00195312  13 t-inv F
  0.375000  0.000000 -0.375000    0.00195312  13 t-inv F
  0.000000 -0.375000  0.375000    0.00195312  13 t-inv F
  0.000000  0.375000 -0.375000    0.00195312  13 t-inv F
 -0.500000 -0.375000  0.000000    0.00195312  14 t-inv F
  0.000000  0.500000  0.375000    0.00195312  14 t-inv F
  0.000000 -0.500000 -0.375000    0.00195312  14 t-inv F
  0.375000  0.000000  0.500000    0.00195312  14 t-inv F
 -0.375000  0.000000 -0.500000    0.00195312  14 t-inv F
 -0.375000  0.500000  0.000000    0.00195312  14 t-inv F
  0.375000 -0.500000  0.000000    0.00195312  14 t-inv F
 -0.500000  0.000000  0.375000    0.00195312  14 t-inv F
  0.500000  0.000000 -0.375000    0.00195312  14 t-inv F
  0.000000  0.375000  0.500000    0.00195312  14 t-inv F
  0.000000 -0.375000 -0.500000    0.00195312  14 t-inv F
  0.000000  0.500000  0.500000    0.00195312  15 t-inv F
  0.500000  0.000000  0.500000    0.00195312  15 t-inv F
 -0.125000 -0.125000 -0.125000    0.00195312  16 t-inv F
 -0.125000  0.125000  0.125000    0.00195312  16 t-inv F
  0.125000 -0.125000 -0.125000    0.00195312  16 t-inv F
 -0.125000 -0.125000  0.125000    0.00195312  16 t-inv F
  0.125000  0.125000 -0.125000    0.00195312  16 t-inv F
  0.125000 -0.125000  0.125000    0.00195312  16 t-inv F
 -0.125000  0.125000 -0.125000    0.00195312  16 t-inv F
 -0.250000 -0.125000 -0.125000    0.00195312  17 t-inv F
  0.125000  0.250000  0.125000    0.00195312  17 t-inv F
 -0.125000 -0.250000 -0.125000    0.00195312  17 t-inv F
  0.125000  0.125000  0.250000    0.00195312  17 t-inv F
 -0.125000 -0.125000 -0.250000    0.00195312  17 t-inv F
 -0.125000  0.250000  0.125000    0.00195312  17 t-inv F
  0.125000 -0.250000 -0.125000    0.00195312  17 t-inv F
 -0.250000  0.125000  0.125000    0.00195312  17 t-inv F
  0.250000 -0.125000 -0.125000    0.00195312  17 t-inv F
 -0.125000  0.125000  0.250000    0.00195312  17 t-inv F
  0.125000 -0.125000 -0.250000    0.00195312  17 t-inv F
 -0.250000 -0.125000  0.125000    0.00195312  17 t-inv F
  0.250000  0.125000 -0.125000    0.00195312  17 t-inv F
 -0.125000 -0.250000  0.125000    0.00195312  17 t-inv F
  0.125000  0.250000 -0.125000    0.00195312  17 t-inv F
 -0.125000 -0.125000  0.250000    0.00195312  17 t-inv F
  0.125000  0.125000 -0.250000    0.00195312  17 t-inv F
  0.125000 -0.250000  0.125000    0.00195312  17 t-inv F
 -0.125000  0.250000 -0.125000    0.00195312  17 t-inv F
  0.250000 -0.125000  0.125000    0.00195312  17 t-inv F
 -0.250000  0.125000 -0.125000    0.00195312  17 t-inv F
  0.125000 -0.125000  0.250000    0.00195312  17 t-inv F
 -0.125000  0.125000 -0.250000    0.00195312  17 t-inv F
 -0.375000 -0.125000 -0.125000    0.00195312  18 t-inv F
  0.125000  0.375000  0.125000    0.00195312  18 t-inv F
 -0.125000 -0.375000 -0.125000    0.00195312  18 t-inv F
  0.125000  0.125000  0.375000    0.00195312  18 t-inv F
 -0.125000 -0.125000 -0.375000    0.00195312  18 t-inv F
 -0.125000  0.375000  0.125000    0.00195312  18 t-inv F
  0.125000 -0.375000 -0.125000    0.00195312  18 t-inv F
 -0.375000  0.125000  0.125000    0.00195312  18 t-inv F
  0.375000 -0.125000 -0.125000    0.00195312  18 t-inv F
 -0.125000  0.125000  0.375000    0.00195312  18 t-inv F
  0.125000 -0.125000 -0.375000    0.00195312  18 t-inv F
 -0.375000 -0.125000  0.125000    0.00195312  18 t-inv F
  0.375000  0.125000 -0.125000    0.00195312  18 t-inv F
 -0.125000 -0.375000  0.125000    0.00195312  18 t-inv F
  0.125000  0.375000 -0.125000    0.00195312  18 t-inv F
 -0.125000 -0.125000  0.375000    0.00195312  18 t-inv F
  0.125000  0.125000 -0.375000    0.00195312  18 t-inv F
  0.125000 -0.375000  0.125000    0.00195312  18 t-inv F
 -0.125000  0.375000 -0.125000    0.00195312  18 t-inv F
  0.375000 -0.125000  0.125000    0.00195312  18 t-inv F
 -0.375000  0.125000 -0.125000    0.00195312  18 t-inv F
  0.125000 -0.125000  0.375000    0.00195312  18 t-inv F
 -0.125000  0.125000 -0.375000    0.00195312  18 t-inv F
 -0.500000 -0.125000 -0.125000    0.00195312  19 t-inv F
  0.125000  0.500000  0.125000    0.00195312  19 t-inv F
 -0.125000 -0.500000 -0.125000    0.00195312  19 t-inv F
  0.125000  0.125000  0.500000    0.00195312  19 t-inv F
 -0.125000 -0.125000 -0.500000    0.00195312  19 t-inv F
 -0.125000  0.500000  0.125000    0.00195312  19 t-inv F
  0.125000 -0.500000 -0.125000    0.00195312  19 t-inv F
 -0.125000  0.125000  0.500000    0.00195312  19 t-inv F
  0.125000 -0.125000 -0.500000    0.00195312  19 t-inv F
 -0.500000 -0.125000  0.125000    0.00195312  19 t-inv F
  0.500000  0.125000 -0.125000    0.00195312  19 t-inv F
 -0.250000 -0.250000 -0.125000    0.00195312  20 t-inv F
  0.125000  0.250000  0.250000    0.00195312  20 t-inv F
 -0.125000 -0.250000 -0.250000    0.00195312  20 t-inv F
  0.250000  0.125000  0.250000    0.00195312  20 t-inv F
 -0.250000 -0.125000 -0.250000    0.00195312  20 t-inv F
 -0.250000  0.250000  0.125000    0.00195312  20 t-inv F
  0.250000 -0.250000 -0.125000    0.00195312  20 t-inv F
 -0.250000  0.125000  0.250000    0.00195312  20 t-inv F
  0.250000 -0.125000 -0.250000    0.00195312  20 t-inv F
 -0.125000  0.250000  0.250000    0.00195312  20 t-inv F
  0.125000 -0.250000 -0.250000    0.00195312  20 t-inv F
 -0.250000 -0.250000  0.125000    0.00195312  20 t-inv F
  0.250000  0.250000 -0.125000    0.00195312  20 t-inv F
 -0.125000 -0.250000  0.250000    0.00195312  20 t-inv F
  0.125000  0.250000 -0.250000    0.00195312  20 t-inv F
 -0.250000 -0.125000  0.250000    0.00195312  20 t-inv F
  0.250000  0.125000 -0.250000    0.00195312  20 t-inv F
  0.250000 -0.250000  0.125000    0.00195312  20 t-inv F
 -0.250000  0.250000 -0.125000    0.00195312  20 t-inv F
  0.250000 -0.125000  0.250000    0.00195312  20 t-inv F
 -0.250000  0.125000 -0.250000    0.00195312  20 t-inv F
  0.125000 -0.250000  0.250000    0.00195312  20 t-inv F
 -0.125000  0.250000 -0.250000    0.00195312  20 t-inv F
 -0.375000 -0.250000 -0.125000    0.00195312  21 t-inv F
  0.125000  0.375000  0.250000    0.00195312  21 t-inv F
 -0.125000 -0.375000 -0.250000    0.00195312  21 t-inv F
  0.250000  0.125000  0.375000    0.00195312  21 t-inv F
 -0.250000 -0.125000 -0.375000    0.00195312  21 t-inv F
 -0.250000  0.375000  0.125000    0.00195312  21 t-inv F
  0.250000 -0.375000 -0.125000    0.00195312  21 t-inv F
 -0.375000  0.125000  0.250000    0.00195312  21 t-inv F
  0.375000 -0.125000 -0.250000    0.00195312  21 t-inv F
 -0.125000  0.250000  0.375000    0.00195312  21 t-inv F
  0.125000 -0.250000 -0.375000    0.00195312  21 t-inv F
 -0.375000 -0.250000  0.125000    0.00195312  21 t-inv F
  0.375000  0.250000 -0.125000    0.00195312  21 t-inv F
 -0.125000 -0.375000  0.250000    0.00195312  21 t-inv F
  0.125000  0.375000 -0.250000    0.00195312  21 t-inv F
 -0.250000 -0.125000  0.375000    0.00195312  21 t-inv F
  0.250000  0.125000 -0.375000    0.00195312  21 t-inv F
  0.250000 -0.375000  0.125000    0.00195312  21 t-inv F
 -0.250000  0.375000 -0.125000    0.00195312  21 t-inv F
  0.375000 -0.125000  0.250000    0.00195312  21 t-inv F
 -0.375000  0.125000 -0.250000    0.00195312  21 t-inv F
  0.125000 -0.250000  0.375000    0.00195312  21 t-inv F
 -0.125000  0.250000 -0.375000    0.00195312  21 t-inv F
  0.125000 -0.375000 -0.250000    0.00195312  21 t-inv F
 -0.125000  0.375000  0.250000    0.00195312  21 t-inv F
  0.250000 -0.125000 -0.375000    0.00195312  21 t-inv F
 -0.250000  0.125000  0.375000    0.00195312  21 t-inv F
  0.375000 -0.250000 -0.125000    0.00195312  21 t-inv F
 -0.375000  0.250000  0.125000    0.00195312  21 t-inv F
  0.125000  0.250000 -0.375000    0.00195312  21 t-inv F
 -0.125000 -0.250000  0.375000    0.00195312  21 t-inv F
  0.250000  0.375000 -0.125000    0.00195312  21 t-inv F
 -0.250000 -0.375000  0.125000    0.00195312  21 t-inv F
  0.375000  0.125000 -0.250000    0.00195312  21 t-inv F
 -0.375000 -0.125000  0.250000    0.00195312  21 t-inv F
 -0.250000  0.125000 -0.375000    0.00195312  21 t-inv F
  0.250000 -0.125000  0.375000    0.00195312  21 t-inv F
 -0.375000  0.250000 -0.125000    0.00195312  21 t-inv F
  0.375000 -0.250000  0.125000    0.00195312  21 t-inv F
 -0.125000  0.375000 -0.250000    0.00195312  21 t-inv F
  0.125000 -0.375000  0.250000    0.00195312  21 t-inv F
 -0.375000 -0.125000 -0.250000    0.00195312  21 t-inv F
  0.375000  0.125000  0.250000    0.00195312  21 t-inv F
 -0.250000 -0.375000 -0.125000    0.00195312  21 t-inv F
  0.250000  0.375000  0.125000    0.00195312  21 t-inv F
 -0.125000 -0.250000 -0.375000    0.00195312  21 t-inv F
  0.125000  0.250000  0.375000    0.00195312  21 t-inv F
 -0.500000 -0.250000 -0.125000    0.00195312  22 t-inv F
  0.125000  0.500000  0.250000    0.00195312  22 t-inv F
 -0.125000 -0.500000 -0.250000    0.00195312  22 t-inv F
  0.250000  0.125000  0.500000    0.00195312  22 t-inv F
 -0.250000 -0.125000 -0.500000    0.00195312  22 t-inv F
 -0.250000  0.500000  0.125000    0.00195312  22 t-inv F
  0.250000 -0.500000 -0.125000    0.00195312  22 t-inv F
 -0.500000  0.125000  0.250000    0.00195312  22 t-inv F
  0.500000 -0.125000 -0.250000    0.00195312  22 t-inv F
 -0.125000  0.250000  0.500000    0.00195312  22 t-inv F
  0.125000 -0.250000 -0.500000    0.00195312  22 t-inv F
 -0.500000 -0.250000  0.125000    0.00195312  22 t-inv F
  0.500000  0.250000 -0.125000    0.00195312  22 t-inv F
 -0.125000 -0.500000  0.250000    0.00195312  22 t-inv F
  0.125000  0.500000 -0.250000    0.00195312  22 t-inv F
  0.250000 -0.500000  0.125000    0.00195312  22 t-inv F
 -0.250000  0.500000 -0.125000    0.00195312  22 t-inv F
  0.500000 -0.125000  0.250000    0.00195312  22 t-inv F
 -0.500000  0.125000 -0.250000    0.00195312  22 t-inv F
  0.250000 -0.125000 -0.500000    0.00195312  22 t-inv F
 -0.250000  0.125000  0.500000    0.00195312  22 t-inv F
  0.125000  0.250000 -0.500000    0.00195312  22 t-inv F
 -0.125000 -0.250000  0.500000    0.00195312  22 t-inv F
 -0.375000 -0.375000 -0.125000    0.00195312  23 t-inv F
  0.125000  0.375000  0.375000    0.00195312  23 t-inv F
 -0.125000 -0.375000 -0.375000    0.00195312  23 t-inv F
  0.375000  0.125000  0.375000    0.00195312  23 t-inv F
 -0.375000 -0.125000 -0.375000    0.00195312  23 t-inv F
 -0.375000  0.375000  0.125000    0.00195312  23 t-inv F
  0.375000 -0.375000 -0.125000    0.00195312  23 t-inv F
 -0.375000  0.125000  0.375000    0.00195312  23 t-inv F
  0.375000 -0.125000 -0.375000    0.00195312  23 t-inv F
 -0.125000  0.375000  0.375000    0.00195312  23 t-inv F
  0.125000 -0.375000 -0.375000    0.00195312  23 t-inv F
 -0.375000 -0.375000  0.125000    0.00195312  23 t-inv F
  0.375000  0.375000 -0.125000    0.00195312  23 t-inv F
 -0.125000 -0.375000  0.375000    0.00195312  23 t-inv F
  0.125000  0.375000 -0.375000    0.00195312  23 t-inv F
 -0.375000 -0.125000  0.375000    0.00195312  23 t-inv F
  0.375000  0.125000 -0.375000    0.00195312  23 t-inv F
  0.375000 -0.375000  0.125000    0.00195312  23 t-inv F
 -0.375000  0.375000 -0.125000    0.00195312  23 t-inv F
  0.375000 -0.125000  0.375000    0.00195312  23 t-inv F
 -0.375000  0.125000 -0.375000    0.00195312  23 t-inv F
  0.125000 -0.375000  0.375000    0.00195312  23 t-inv F
 -0.125000  0.375000 -0.375000    0.00195312  23 t-inv F
 -0.500000 -0.375000 -0.125000    0.00195312  24 t-inv F
  0.125000  0.500000  0.375000    0.00195312  24 t-inv F
 -0.125000 -0.500000 -0.375000    0.00195312  24 t-inv F
  0.375000  0.125000  0.500000    0.00195312  24 t-inv F
 -0.375000 -0.125000 -0.500000    0.00195312  24 t-inv F
 -0.375000  0.500000  0.125000    0.00195312  24 t-inv F
  0.375000 -0.500000 -0.125000    0.00195312  24 t-inv F
 -0.500000  0.125000  0.375000    0.00195312  24 t-inv F
  0.500000 -0.125000 -0.375000    0.00195312  24 t-inv F
 -0.125000  0.375000  0.500000    0.00195312  24 t-inv F
  0.125000 -0.375000 -0.500000    0.00195312  24 t-inv F
 -0.500000 -0.375000  0.125000    0.00195312  24 t-inv F
  0.500000  0.375000 -0.125000    0.00195312  24 t-inv F
 -0.125000 -0.500000  0.375000    0.00195312  24 t-inv F
  0.125000  0.500000 -0.375000    0.00195312  24 t-inv F
  0.375000 -0.500000  0.125000    0.00195312  24 t-inv F
 -0.375000  0.500000 -0.125000    0.00195312  24 t-inv F
  0.500000 -0.125000  0.375000    0.00195312  24 t-inv F
 -0.500000  0.125000 -0.375000    0.00195312  24 t-inv F
  0.375000 -0.125000 -0.500000    0.00195312  24 t-inv F
 -0.375000  0.125000  0.500000    0.00195312  24 t-inv F
  0.125000  0.375000 -0.500000    0.00195312  24 t-inv F
 -0.125000 -0.375000  0.500000    0.00195312  24 t-inv F
 -0.500000 -0.500000 -0.125000    0.00195312  25 t-inv F
  0.125000  0.500000  0.500000    0.00195312  25 t-inv F
 -0.125000 -0.500000 -0.500000    0.00195312  25 t-inv F
  0.500000  0.125000  0.500000    0.00195312  25 t-inv F
 -0.500000 -0.125000 -0.500000    0.00195312  25 t-inv F
 -0.250000 -0.250000 -0.250000    0.00195312  26 t-inv F
 -0.250000  0.250000  0.250000    0.00195312  26 t-inv F
  0.250000 -0.250000 -0.250000    0.00195312  26 t-inv F
 -0.250000 -0.250000  0.250000    0.00195312  26 t-inv F
  0.250000  0.250000 -0.250000    0.00195312  26 t-inv F
  0.250000 -0.250000  0.250000    0.00195312  26 t-inv F
 -0.250000  0.250000 -0.250000    0.00195312  26 t-inv F
 -0.375000 -0.250000 -0.250000    0.00195312  27 t-inv F
  0.250000  0.375000  0.250000    0.00195312  27 t-inv F
 -0.250000 -0.375000 -0.250000    0.00195312  27 t-inv F
  0.250000  0.250000  0.375000    0.00195312  27 t-inv F
 -0.250000 -0.250000 -0.375000    0.00195312  27 t-inv F
 -0.250000  0.375000  0.250000    0.00195312  27 t-inv F
  0.250000 -0.375000 -0.250000    0.00195312  27 t-inv F
 -0.375000  0.250000  0.250000    0.00195312  27 t-inv F
  0.375000 -0.250000 -0.250000    0.00195312  27 t-inv F
 -0.250000  0.250000  0.375000    0.00195312  27 t-inv F
  0.250000 -0.250000 -0.375000    0.00195312  27 t-inv F
 -0.375000 -0.250000  0.250000    0.00195312  27 t-inv F
  0.375000  0.250000 -0.250000    0.00195312  27 t-inv F
 -0.250000 -0.375000  0.250000    0.00195312  27 t-inv F
  0.250000  0.375000 -0.250000    0.00195312  27 t-inv F
 -0.250000 -0.250000  0.375000    0.00195312  27 t-inv F
  0.250000  0.250000 -0.375000    0.00195312  27 t-inv F
  0.250000 -0.375000  0.250000    0.00195312  27 t-inv F
 -0.250000  0.375000 -0.250000    0.00195312  27 t-inv F
  0.375000 -0.250000  0.250000    0.00195312  27 t-inv F
 -0.375000  0.250000 -0.250000    0.00195312  27 t-inv F
  0.250000 -0.250000  0.375000    0.00195312  27 t-inv F
 -0.250000  0.250000 -0.375000    0.00195312  27 t-inv F
 -0.500000 -0.250000 -0.250000    0.00195312  28 t-inv F
  0.250000  0.500000  0.250000    0.00195312  28 t-inv F
 -0.250000 -0.500000 -0.250000    0.00195312  28 t-inv F
  0.250000  0.250000  0.500000    0.00195312  28 t-inv F
 -0.250000 -0.250000 -0.500000    0.00195312  28 t-inv F
 -0.250000  0.500000  0.250000    0.00195312  28 t-inv F
  0.250000 -0.500000 -0.250000    0.00195312  28 t-inv F
 -0.250000  0.250000  0.500000    0.00195312  28 t-inv F
  0.250000 -0.250000 -0.500000    0.00195312  28 t-inv F
 -0.500000 -0.250000  0.250000    0.00195312  28 t-inv F
  0.500000  0.250000 -0.250000    0.00195312  28 t-inv F
 -0.375000 -0.375000 -0.250000    0.00195312  29 t-inv F
  0.250000  0.375000  0.375000    0.00195312  29 t-inv F
 -0.250000 -0.375000 -0.375000    0.00195312  29 t-inv F
  0.375000  0.250000  0.375000    0.00195312  29 t-inv F
 -0.375000 -0.250000 -0.375000    0.00195312  29 t-inv F
 -0.375000  0.375000  0.250000    0.00195312  29 t-inv F
  0.375000 -0.375000 -0.250000    0.00195312  29 t-inv F
 -0.375000  0.250000  0.375000    0.00195312  29 t-inv F
  0.375000 -0.250000 -0.375000    0.00195312  29 t-inv F
 -0.250000  0.375000  0.375000    0.00195312  29 t-inv F
  0.250000 -0.375000 -0.375000    0.00195312  29 t-inv F
 -0.375000 -0.375000  0.250000    0.00195312  29 t-inv F
  0.375000  0.375000 -0.250000    0.00195312  29 t-inv F
 -0.250000 -0.375000  0.375000    0.00195312  29 t-inv F
  0.250000  0.375000 -0.375000    0.00195312  29 t-inv F
 -0.375000 -0.250000  0.375000    0.00195312  29 t-inv F
  0.375000  0.250000 -0.375000    0.00195312  29 t-inv F
  0.375000 -0.375000  0.250000    0.00195312  29 t-inv F
 -0.375000  0.375000 -0.250000    0.00195312  29 t-inv F
  0.375000 -0.250000  0.375000    0.00195312  29 t-inv F
 -0.375000  0.250000 -0.375000    0.00195312  29 t-inv F
  0.250000 -0.375000  0.375000    0.00195312  29 t-inv F
 -0.250000  0.375000 -0.375000    0.00195312  29 t-inv F
 -0.500000 -0.375000 -0.250000    0.00195312  30 t-inv F
  0.250000  0.500000  0.375000    0.00195312  30 t-inv F
 -0.250000 -0.500000 -0.375000    0.00195312  30 t-inv F
  0.375000  0.250000  0.500000    0.00195312  30 t-inv F
 -0.375000 -0.250000 -0.500000    0.00195312  30 t-inv F
 -0.375000  0.500000  0.250000    0.00195312  30 t-inv F
  0.375000 -0.500000 -0.250000    0.00195312  30 t-inv F
 -0.500000  0.250000  0.375000    0.00195312  30 t-inv F
  0.500000 -0.250000 -0.375000    0.00195312  30 t-inv F
 -0.250000  0.375000  0.500000    0.00195312  30 t-inv F
  0.250000 -0.375000 -0.500000    0.00195312  30 t-inv F
 -0.500000 -0.375000  0.250000    0.00195312  30 t-inv F
  0.500000  0.375000 -0.250000    0.00195312  30 t-inv F
 -0.250000 -0.500000  0.375000    0.00195312  30 t-inv F
  0.250000  0.500000 -0.375000    0.00195312  30 t-inv F
  0.375000 -0.500000  0.250000    0.00195312  30 t-inv F
 -0.375000  0.500000 -0.250000    0.00195312  30 t-inv F
  0.500000 -0.250000  0.375000    0.00195312  30 t-inv F
 -0.500000  0.250000 -0.375000    0.00195312  30 t-inv F
  0.375000 -0.250000 -0.500000    0.00195312  30 t-inv F
 -0.375000  0.250000  0.500000    0.00195312  30 t-inv F
  0.250000  0.375000 -0.500000    0.00195312  30 t-inv F
 -0.250000 -0.375000  0.500000    0.00195312  30 t-inv F
 -0.500000 -0.500000 -0.250000    0.00195312  31 t-inv F
  0.250000  0.500000  0.500000    0.00195312  31 t-inv F
 -0.250000 -0.500000 -0.500000    0.00195312  31 t-inv F
  0.500000  0.250000  0.500000    0.00195312  31 t-inv F
 -0.500000 -0.250000 -0.500000    0.00195312  31 t-inv F
 -0.375000 -0.375000 -0.375000    0.00195312  32 t-inv F
 -0.375000  0.375000  0.375000    0.00195312  32 t-inv F
  0.375000 -0.375000 -0.375000    0.00195312  32 t-inv F
 -0.375000 -0.375000  0.375000    0.00195312  32 t-inv F
  0.375000  0.375000 -0.375000    0.00195312  32 t-inv F
  0.375000 -0.375000  0.375000    0.00195312  32 t-inv F
 -0.375000  0.375000 -0.375000    0.00195312  32 t-inv F
 -0.500000 -0.375000 -0.375000    0.00195312  33 t-inv F
  0.375000  0.500000  0.375000    0.00195312  33 t-inv F
 -0.375000 -0.500000 -0.375000    0.00195312  33 t-inv F
  0.375000  0.375000  0.500000    0.00195312  33 t-inv F
 -0.375000 -0.375000 -0.500000    0.00195312  33 t-inv F
 -0.375000  0.500000  0.375000    0.00195312  33 t-inv F
  0.375000 -0.500000 -0.375000    0.00195312  33 t-inv F
 -0.375000  0.375000  0.500000    0.00195312  33 t-inv F
  0.375000 -0.375000 -0.500000    0.00195312  33 t-inv F
 -0.500000 -0.375000  0.375000    0.00195312  33 t-inv F
  0.500000  0.375000 -0.375000    0.00195312  33 t-inv F
 -0.500000 -0.500000 -0.375000    0.00195312  34 t-inv F
  0.375000  0.500000  0.500000    0.00195312  34 t-inv F
 -0.375000 -0.500000 -0.500000    0.00195312  34 t-inv F
  0.500000  0.375000  0.500000    0.00195312  34 t-inv F
 -0.500000 -0.375000 -0.500000    0.00195312  34 t-inv F


--------------------------------------------------------------------------------------------------------




 Dimension of arrays:
   k-points           NKPTS =     35   k-points in BZ     NKDIM =     35   number of bands    NBANDS=     48
   number of dos      NEDOS =    301   number of ions     NIONS =      4
   non local maximal  LDIM  =      6   non local SUM 2l+1 LMDIM =     18
   total plane-waves  NPLWV =   5832
   max r-space proj   IRMAX =      1   max aug-charges    IRDMAX=   3711
   dimension x,y,z NGX =    18 NGY =   18 NGZ =   18
   dimension x,y,z NGXF=    36 NGYF=   36 NGZF=   36
   support grid    NGXF=    36 NGYF=   36 NGZF=   36
   ions per type =               4
   NGX,Y,Z   is equivalent  to a cutoff of   8.23,  8.23,  8.23 a.u.
   NGXF,Y,Z  is equivalent  to a cutoff of  16.46, 16.46, 16.46 a.u.

 SYSTEM =  Cu                                      
 POSCAR =  Cu4                                     

 Startparameter for this run:
   NWRITE =      2    write-flag & timer
   PREC   = normal    normal or accurate (medium, high low for compatibility)
   ISTART =      1    job   : 0-new  1-cont  2-samecut
   ICHARG =      0    charge: 1-file 2-atom 10-const
   ISPIN  =      1    spin polarized calculation?
   LNONCOLLINEAR =      F non collinear calculations
   LSORBIT =      F    spin-orbit coupling
   INIWAV =      1    electr: 0-lowe 1-rand  2-diag
   LASPH  =      F    aspherical Exc in radial PAW
 Electronic Relaxation 1
   ENCUT  =  384.1 eV  28.23 Ry    5.31 a.u.   5.81  5.81  5.81*2*pi/ulx,y,z
   ENINI  =  384.1     initial cutoff
   ENAUG  =  587.0 eV  augmentation charge cutoff
   NELM   =     60;   NELMIN=  2; NELMDL=  0     # of ELM steps 
   EDIFF  = 0.1E-03   stopping-criterion for ELM
   LREAL  =      F    real-space projection
   NLSPLINE    = F    spline interpolate recip. space projectors
   LCOMPAT=      F    compatible to vasp.4.4
   GGA_COMPAT  = T    GGA compatible to vasp.4.4-vasp.4.6
   LMAXPAW     = -100 max onsite density
   LMAXMIX     =    2 max onsite mixed and CHGCAR
   VOSKOWN=      0    Vosko Wilk Nusair interpolation
   ROPT   =    0.00000
 Ionic relaxation
   EDIFFG = 0.1E-02   stopping-criterion for IOM
   NSW    =      0    number of steps for IOM
   NBLOCK =      1;   KBLOCK =      1    inner block; outer block 
   IBRION =     -1    ionic relax: 0-MD 1-quasi-New 2-CG
   NFREE  =      0    steps in history (QN), initial steepest desc. (CG)
   ISIF   =      2    stress and relaxation
   IWAVPR =     10    prediction:  0-non 1-charg 2-wave 3-comb
   ISYM   =      2    0-nonsym 1-usesym 2-fastsym
   LCORR  =      T    Harris-Foulkes like correction to forces

   POTIM  = 0.5000    time-step for ionic-motion
   TEIN   =    0.0    initial temperature
   TEBEG  =    0.0;   TEEND  =   0.0 temperature during run
   SMASS  =  -3.00    Nose mass-parameter (am)
   estimated Nose-frequenzy (Omega)   =  0.10E-29 period in steps = 0.13E+47 mass=  -0.302E-27a.u.
   SCALEE = 1.0000    scale energy and forces
   NPACO  =    256;   APACO  = 10.0  distance and # of slots for P.C.
   PSTRESS=    0.0 pullay stress

  Mass of Ions in am
   POMASS =  63.55
  Ionic Valenz
   ZVAL   =  11.00
  Atomic Wigner-Seitz radii
   RWIGS  =  -1.00
  virtual crystal weights 
   VCA    =   1.00
   NELECT =      44.0000    total number of electrons
   NUPDOWN=      -1.0000    fix difference up-down

 DOS related values:
   EMIN   =  10.00;   EMAX   =-10.00  energy-range for DOS
   EFERMI =   0.00;   METHOD = LEGACY      
   ISMEAR =     0;   SIGMA  =   0.05  broadening in eV -4-tet -1-fermi 0-gaus

 Electronic relaxation 2 (details)
   IALGO  =     38    algorithm
   LDIAG  =      T    sub-space diagonalisation (order eigenvalues)
   LSUBROT=      F    optimize rotation matrix (better conditioning)
   TURBO    =      0    0=normal 1=particle mesh
   IRESTART =      0    0=no restart 2=restart with 2 vectors
   NREBOOT  =      0    no. of reboots
   NMIN     =      0    reboot dimension
   EREF     =   0.00    reference energy to select bands
   IMIX   =      4    mixing-type and parameters
     AMIX     =   0.40;   BMIX     =  1.00
     AMIX_MAG =   1.60;   BMIX_MAG =  1.00
     AMIN     =   0.10
     WC   =   100.;   INIMIX=   1;  MIXPRE=   1;  MAXMIX= -45

 Intra band minimization:
   WEIMIN = 0.0000     energy-eigenvalue tresh-hold
   EBREAK =  0.52E-06  absolut break condition
   DEPER  =   0.30     relativ break condition  

   TIME   =   0.40     timestep for ELM

  volume/ion in A,a.u.               =      12.03        81.16
  Fermi-wavevector in a.u.,A,eV,Ry     =   1.589140  3.003040 34.359700  2.525367
  Thomas-Fermi vector in A             =   2.688036
 
 Write flags
   LWAVE        =      T    write WAVECAR
   LDOWNSAMPLE  =      F    k-point downsampling of WAVECAR
   LCHARG       =      T    write CHGCAR
   LVTOT        =      F    write LOCPOT, total local potential
   LVHAR        =      F    write LOCPOT, Hartree potential only
   WRT_POTENTIAL= false  ! write potential to hdf5 file
   LELF         =      F    write electronic localiz. function (ELF)
   LORBIT       =      0    0 simple, 1 ext, 2 COOP (PROOUT), +10 PAW based schemes


 Dipole corrections
   LMONO      =      F    monopole corrections only (constant potential shift)
   LDIPOL     =      F    correct potential (dipole corrections)
   IDIPOL     =      0    1-x, 2-y, 3-z, 4-all directions 
   EPSILON    =  1.0000000 bulk dielectric constant
   LVACPOTAV  =      F  vacuum potentials using an averaging scheme for the charge density
   VACPOTFLAT =  0.1000000 required flatness to determine vacuum potential
 Exchange correlation treatment:
   GGA     = PE    functional components
   XC_C    = 1    coefficients multiplying the functional components
   LIBXC   =     F    Libxc                    
   VOSKOWN =     0    Vosko Wilk Nusair interpolation
   LHFCALC =     F    Hartree Fock is set to
   LHFONE  =     F    Hartree Fock one center treatment
   AEXX    =    0.0000 exact exchange contribution

 Parameters of functionals:
   PE:
     No parameter
 
 Van der Waals corrections
   IVDW    =     0    specifies the selected vdW correction

 Linear response parameters
   LEPSILON=     F    determine dielectric tensor
   LRPA    =     F    only Hartree local field effects (RPA)
   LNABLA  =     F    use nabla operator in PAW spheres
   LVEL    =     F    velocity operator in full k-point grid
   CSHIFT  =0.1000    complex shift for real part using Kramers Kronig
   OMEGAMAX=  -1.0    maximum frequency
   DEG_THRESHOLD= 0.2000000E-02 threshold for treating states as degnerate
   RTIME   =   -0.100 relaxation time in fs
  (WPLASMAI=    0.000 imaginary part of plasma frequency in eV, 0.658/RTIME)
   DFIELD  = 0.0000000 0.0000000 0.0000000 field for delta impulse in time
 
  Optional k-point grid parameters
   LKPOINTS_OPT  =     T    use optional k-point grid
   KPOINTS_OPT_MODE=     1    mode for optional k-point grid
 
 Orbital magnetization related:
   ORBITALMAG=     F  switch on orbital magnetization
   LCHIMAG   =     F  perturbation theory with respect to B field
   DQ        =  0.001000  dq finite difference perturbation B field
   LLRAUG    =     F  two centre corrections for induced B field
   LBONE     =     F  B-component reconstruction in AE one-centre
   LVGVCALC  =     T  calculate vGv susceptibility
   LVGVAPPL  =     F  apply vGv susceptibility instead of pGv for G=0

 Random number generation:
   RANDOM_GENERATOR = DEFAULT
   PCG_SEED         = not used


--------------------------------------------------------------------------------------------------------


 Static calculation
 charge density and potential will be updated during run
 non-spin polarized calculation
 Variant of blocked Davidson
 Davidson routine will perform the subspace rotation
 perform sub-space diagonalisation
    after iterative eigenvector-optimisation
 modified Broyden-mixing scheme, WC =      100.0
 initial mixing is a Kerker type mixing with AMIX =  0.4000 and BMIX =      1.0000
 Hartree-type preconditioning will be used
 using additional bands           26
 reciprocal scheme for non local part
 use partial core corrections
 calculate Harris-corrections to forces 
   (improved forces if not selfconsistent)
 use gradient corrections 
 use of overlap-Matrix (Vanderbilt PP)
 Gauss-broadening in eV      SIGMA  =   0.05


--------------------------------------------------------------------------------------------------------


  energy-cutoff  :      384.08
  volume of cell :       48.11
      direct lattice vectors                 reciprocal lattice vectors
     3.636890000  0.000000000  0.000000000     0.274960200 -0.000000000  0.000000000
     0.000000000  3.636890000  0.000000000     0.000000000  0.274960200  0.000000000
     0.000000000  0.000000000  3.636890000    -0.000000000 -0.000000000  0.274960200

  length of vectors
     3.636890000  3.636890000  3.636890000     0.274960200  0.274960200  0.274960200


 
 old parameters found on file WAVECAR:
  energy-cutoff  :      384.08
  volume of cell :       48.11
      direct lattice vectors                 reciprocal lattice vectors
     3.636890000  0.000000000  0.000000000     0.274960200 -0.000000000  0.000000000
     0.000000000  3.636890000  0.000000000     0.000000000  0.274960200  0.000000000
     0.000000000  0.000000000  3.636890000    -0.000000000 -0.000000000  0.274960200

  length of vectors

 
 k-points in units of 2pi/SCALE and weight: Automatic kpoint scheme                 
   0.00000000  0.00000000  0.00000000       0.002
   0.03437002 -0.00000000  0.00000000       0.012
   0.06874005 -0.00000000  0.00000000       0.012
   0.10311007 -0.00000000  0.00000000       0.012
   0.13748010 -0.00000000  0.00000000       0.006
   0.03437002  0.03437002  0.00000000       0.023
   0.06874005  0.03437002  0.00000000       0.047
   0.10311007  0.03437002  0.00000000       0.047
   0.13748010  0.03437002  0.00000000       0.023
   0.06874005  0.06874005  0.00000000       0.023
   0.10311007  0.06874005  0.00000000       0.047
   0.13748010  0.06874005  0.00000000       0.023
   0.10311007  0.10311007  0.00000000       0.023
   0.13748010  0.10311007  0.00000000       0.023
   0.13748010  0.13748010  0.00000000       0.006
   0.03437002  0.03437002  0.03437002       0.016
   0.06874005  0.03437002  0.03437002       0.047
   0.10311007  0.03437002  0.03437002       0.047
   0.13748010  0.03437002  0.03437002       0.023
   0.06874005  0.06874005  0.03437002       0.047
   0.10311007  0.06874005  0.03437002       0.094
   0.13748010  0.06874005  0.03437002       0.047
   0.10311007  0.10311007  0.03437002       0.047
   0.13748010  0.10311007  0.03437002       0.047
   0.13748010  0.13748010  0.03437002       0.012
   0.06874005  0.06874005  0.06874005       0.016
   0.10311007  0.06874005  0.06874005       0.047
   0.13748010  0.06874005  0.06874005       0.023
   0.10311007  0.10311007  0.06874005       0.047
   0.13748010  0.10311007  0.06874005       0.047
   0.13748010  0.13748010  0.06874005       0.012
   0.10311007  0.10311007  0.10311007       0.016
   0.13748010  0.10311007  0.10311007       0.023
   0.13748010  0.13748010  0.10311007       0.012
   0.13748010  0.13748010  0.13748010       0.002
 
 k-points in reciprocal lattice and weights: Automatic kpoint scheme                 
   0.00000000  0.00000000  0.00000000       0.002
   0.12500000  0.00000000  0.00000000       0.012
   0.25000000  0.00000000  0.00000000       0.012
   0.37500000  0.00000000  0.00000000       0.012
   0.50000000  0.00000000  0.00000000       0.006
   0.12500000  0.12500000  0.00000000       0.023
   0.25000000  0.12500000  0.00000000       0.047
   0.37500000  0.12500000  0.00000000       0.047
   0.50000000  0.12500000  0.00000000       0.023
   0.25000000  0.25000000  0.00000000       0.023
   0.37500000  0.25000000  0.00000000       0.047
   0.50000000  0.25000000  0.00000000       0.023
   0.37500000  0.37500000  0.00000000       0.023
   0.50000000  0.37500000  0.00000000       0.023
   0.50000000  0.50000000  0.00000000       0.006
   0.12500000  0.12500000  0.12500000       0.016
   0.25000000  0.12500000  0.12500000       0.047
   0.37500000  0.12500000  0.12500000       0.047
   0.50000000  0.12500000  0.12500000       0.023
   0.25000000  0.25000000  0.12500000       0.047
   0.37500000  0.25000000  0.12500000       0.094
   0.50000000  0.25000000  0.12500000       0.047
   0.37500000  0.37500000  0.12500000       0.047
   0.50000000  0.37500000  0.12500000       0.047
   0.50000000  0.50000000  0.12500000       0.012
   0.25000000  0.25000000  0.25000000       0.016
   0.37500000  0.25000000  0.25000000       0.047
   0.50000000  0.25000000  0.25000000       0.023
   0.37500000  0.37500000  0.25000000       0.047
   0.50000000  0.37500000  0.25000000       0.047
   0.50000000  0.50000000  0.25000000       0.012
   0.37500000  0.37500000  0.37500000       0.016
   0.50000000  0.37500000  0.37500000       0.023
   0.50000000  0.50000000  0.37500000       0.012
   0.50000000  0.50000000  0.50000000       0.002
 
 position of ions in fractional coordinates (direct lattice) 
   0.00000000  0.00000000  0.00000000
   0.00000000  0.50000000  0.50000000
   0.50000000  0.00000000  0.50000000
   0.50000000  0.50000000  0.00000000
 
 position of ions in cartesian coordinates  (Angst):
   0.00000000  0.00000000  0.00000000
   0.00000000  1.81844500  1.81844500
   1.81844500  0.00000000  1.81844500
   1.81844500  1.81844500  0.00000000
 


--------------------------------------------------------------------------------------------------------


 k-point     1 :   0.0000 0.0000 0.0000  plane waves:     799
 k-point     2 :   0.1250 0.0000 0.0000  plane waves:     815
 k-point     3 :   0.2500 0.0000 0.0000  plane waves:     812
 k-point     4 :   0.3750 0.0000 0.0000  plane waves:     816
 k-point     5 :   0.5000 0.0000 0.0000  plane waves:     820
 k-point     6 :   0.1250 0.1250 0.0000  plane waves:     804
 k-point     7 :   0.2500 0.1250 0.0000  plane waves:     820
 k-point     8 :   0.3750 0.1250 0.0000  plane waves:     830
 k-point     9 :   0.5000 0.1250 0.0000  plane waves:     830
 k-point    10 :   0.2500 0.2500 0.0000  plane waves:     822
 k-point    11 :   0.3750 0.2500 0.0000  plane waves:     827
 k-point    12 :   0.5000 0.2500 0.0000  plane waves:     814
 k-point    13 :   0.3750 0.3750 0.0000  plane waves:     822
 k-point    14 :   0.5000 0.3750 0.0000  plane waves:     818
 k-point    15 :   0.5000 0.5000 0.0000  plane waves:     840
 k-point    16 :   0.1250 0.1250 0.1250  plane waves:     820
 k-point    17 :   0.2500 0.1250 0.1250  plane waves:     818
 k-point    18 :   0.3750 0.1250 0.1250  plane waves:     823
 k-point    19 :   0.5000 0.1250 0.1250  plane waves:     816
 k-point    20 :   0.2500 0.2500 0.1250  plane waves:     818
 k-point    21 :   0.3750 0.2500 0.1250  plane waves:     822
 k-point    22 :   0.5000 0.2500 0.1250  plane waves:     816
 k-point    23 :   0.3750 0.3750 0.1250  plane waves:     820
 k-point    24 :   0.5000 0.3750 0.1250  plane waves:     824
 k-point    25 :   0.5000 0.5000 0.1250  plane waves:     836
 k-point    26 :   0.2500 0.2500 0.2500  plane waves:     838
 k-point    27 :   0.3750 0.2500 0.2500  plane waves:     825
 k-point    28 :   0.5000 0.2500 0.2500  plane waves:     812
 k-point    29 :   0.3750 0.3750 0.2500  plane waves:     821
 k-point    30 :   0.5000 0.3750 0.2500  plane waves:     828
 k-point    31 :   0.5000 0.5000 0.2500  plane waves:     824
 k-point    32 :   0.3750 0.3750 0.3750  plane waves:     822
 k-point    33 :   0.5000 0.3750 0.3750  plane waves:     818
 k-point    34 :   0.5000 0.5000 0.3750  plane waves:     832
 k-point    35 :   0.5000 0.5000 0.5000  plane waves:     840

 maximum and minimum number of plane-waves per node :       840      799

 maximum number of plane-waves:       840
 maximum index in each direction: 
   IXMAX=    5   IYMAX=    5   IZMAX=    5
   IXMIN=   -6   IYMIN=   -6   IZMIN=   -6


 serial   3D FFT for wavefunctions
 parallel 3D FFT for charge:
    minimum data exchange during FFTs selected (reduces bandwidth)


 total amount of memory used by VASP MPI-rank0    35388. kBytes
=======================================================================

   base      :      30000. kBytes
   nonl-proj :       4409. kBytes
   fftplans  :         78. kBytes
   grid      :        302. kBytes
   one-center:         62. kBytes
   wavefun   :        537. kBytes
 
     INWAV:  cpu time      0.0708: real time      0.0709
 Broyden mixing: mesh for mixing (old mesh)
   NGX = 11   NGY = 11   NGZ = 11
  (NGX  = 36   NGY  = 36   NGZ  = 36)
  gives a total of   1331 points

 charge density for first step will be calculated from the start-wavefunctions


--------------------------------------------------------------------------------------------------------


 Maximum index for augmentation-charges          277 (set IRDMAX)


--------------------------------------------------------------------------------------------------------


 initial charge from wavefunction
 First call to EWALD:  gamma=   0.487
 Maximum number of real-space cells 3x 3x 3
 Maximum number of reciprocal cells 3x 3x 3

    FEWALD:  cpu time      0.0014: real time      0.0014


--------------------------------------- Ionic step        1  -------------------------------------------




--------------------------------------- Iteration      1(   1)  ---------------------------------------


    POTLOK:  cpu time      0.0028: real time      0.0044
    SETDIJ:  cpu time      0.0019: real time      0.0020
     EDDAV:  cpu time      0.2584: real time      0.2587
       DOS:  cpu time      0.0019: real time      0.0022
    CHARGE:  cpu time      0.0050: real time      0.0050
    MIXING:  cpu time      0.0008: real time      0.0010
    --------------------------------------------
      LOOP:  cpu time      0.2708: real time      0.2732

 eigenvalue-minimisations  :  1872
 total energy-change (2. order) :-0.1492008E+02  (-0.1031834E-04)
 number of electron      44.0001105 magnetization 
 augmentation part       28.0506424 magnetization 

 Broyden mixing:
  rms(total) = 0.20297E-02    rms(broyden)= 0.20294E-02
  rms(prec ) = 0.46195E-02
  weight for this iteration     100.00

 Free energy of the ion-electron system (eV)
  ---------------------------------------------------
  alpha Z        PSCENC =       243.24376042
  Ewald energy   TEWEN  =     -4393.06423324
  -Hartree energ DENC   =     -1369.83480182
  -exchange      EXHF   =         0.00000000
  -V(xc)+E(xc)   XCENC  =       178.58716844
  PAW double counting   =      5243.40230511    -5674.50611115
  entropy T*S    EENTRO =        -0.00266983
  eigenvalues    EBANDS =       193.44328919
  atomic energy  EATOM  =      5563.81121641
  Solvation  Ediel_sol  =         0.00000000
  ---------------------------------------------------
  free energy    TOTEN  =       -14.92007648 eV

  energy without entropy =      -14.91740664  energy(sigma->0) =      -14.91874156


--------------------------------------------------------------------------------------------------------




--------------------------------------- Iteration      1(   2)  ---------------------------------------


    POTLOK:  cpu time      0.0021: real time      0.0038
    SETDIJ:  cpu time      0.0016: real time      0.0016
     EDDAV:  cpu time      0.2728: real time      0.2728
       DOS:  cpu time      0.0004: real time      0.0004
    --------------------------------------------
      LOOP:  cpu time      0.2770: real time      0.2787

 eigenvalue-minimisations  :  1872
 total energy-change (2. order) : 0.4443872E-05  (-0.1534834E-04)
 number of electron      44.0001105 magnetization 
 augmentation part       28.0506424 magnetization 

 Free energy of the ion-electron system (eV)
  ---------------------------------------------------
  alpha Z        PSCENC =       243.24376042
  Ewald energy   TEWEN  =     -4393.06423324
  -Hartree energ DENC   =     -1369.69277122
  -exchange      EXHF   =         0.00000000
  -V(xc)+E(xc)   XCENC  =       178.57997505
  PAW double counting   =      5243.28320033    -5674.33571679
  entropy T*S    EENTRO =        -0.00266866
  eigenvalues    EBANDS =       193.25716567
  atomic energy  EATOM  =      5563.81121641
  Solvation  Ediel_sol  =         0.00000000
  ---------------------------------------------------
  free energy    TOTEN  =       -14.92007203 eV

  energy without entropy =      -14.91740337  energy(sigma->0) =      -14.91873770


--------------------------------------------------------------------------------------------------------




 average (electrostatic) potential at core
  the test charge radii are     0.9430
  (the norm of the test charge is              1.0000)
       1 -63.8658       2 -63.8658       3 -63.8658       4 -63.8658
 
 
 
 E-fermi :   7.3205     XC(G=0): -12.6202     alpha+bet :-13.1831

 val. band max:        7.2133015075   @ k =   0.3750   0.3750   0.1250
 cond. band min:       7.3222223322   @ k =   0.3750   0.3750   0.2500
 fundamental gap:      0.1089208247
 Fermi energy:         7.3204847162

 k-point     1 :       0.0000    0.0000    0.0000
  band No.  band energies     occupation 
      1      -1.8523      2.00000
      2       2.6004      2.00000
      3       2.6004      2.00000
      4       2.6004      2.00000
      5       3.0467      2.00000
      6       3.0467      2.00000
      7       3.0467      2.00000
      8       4.4032      2.00000
      9       4.4032      2.00000
     10       4.4032      2.00000
     11       5.2078      2.00000
     12       5.2078      2.00000
     13       5.7423      2.00000
     14       5.7423      2.00000
     15       5.7423      2.00000
     16       5.8936      2.00000
     17       5.8936      2.00000
     18       5.8936      2.00000
     19       5.8936      2.00000
     20       5.8936      2.00000
     21       5.8936      2.00000
     22       8.8740      0.00000
     23       8.8740      0.00000
     24       8.8740      0.00000
     25      14.3554      0.00000
     26      14.3554      0.00000
     27      14.3554      0.00000
     28      20.3031      0.00000
     29      20.3031      0.00000
     30      20.3031      0.00000
     31      20.3031      0.00000
     32      20.3031      0.00000
     33      20.3031      0.00000
     34      24.7572      0.00000
     35      24.7572      0.00000
     36      24.7572      0.00000
     37      27.3248      0.00000
     38      27.3248      0.00000
     39      27.3248      0.00000
     40      29.8140      0.00000
     41      32.3140      0.00000
     42      32.3140      0.00000
     43      32.3140      0.00000
     44      34.7951      0.00000
     45      34.7951      0.00000
     46      34.7951      0.00000
     47      38.5577      0.00000
     48      43.1899      0.00000

 k-point     2 :       0.1250    0.0000    0.0000
  band No.  band energies     occupation 
      1      -1.6651      2.00000
      2       2.5932      2.00000
      3       2.6860      2.00000
      4       2.6860      2.00000
      5       3.0956      2.00000
      6       3.0987      2.00000
      7       3.0987      2.00000
      8       4.3488      2.00000
      9       4.4465      2.00000
     10       4.4465      2.00000
     11       5.1583      2.00000
     12       5.2277      2.00000
     13       5.5938      2.00000
     14       5.5938      2.00000
     15       5.6785      2.00000
     16       5.6785      2.00000
     17       5.7214      2.00000
     18       5.8187      2.00000
     19       5.8187      2.00000
     20       5.8935      2.00000
     21       5.8935      2.00000
     22       7.8440      0.00000
     23       9.3419      0.00000
     24       9.3419      0.00000
     25      14.4255      0.00000
     26      14.4255      0.00000
     27      15.7601      0.00000
     28      19.1999      0.00000
     29      19.1999      0.00000
     30      19.5578      0.00000
     31      19.5578      0.00000
     32      20.5770      0.00000
     33      20.5770      0.00000
     34      24.8385      0.00000
     35      26.0929      0.00000
     36      26.0929      0.00000
     37      27.3980      0.00000
     38      28.4790      0.00000
     39      28.4790      0.00000
     40      29.1946      0.00000
     41      30.6854      0.00000
     42      30.6854      0.00000
     43      31.5836      0.00000
     44      35.8123      0.00000
     45      36.5195      0.00000
     46      36.5195      0.00000
     47      38.5524      0.00000
     48      40.9637      0.00000

 k-point     3 :       0.2500    0.0000    0.0000
  band No.  band energies     occupation 
      1      -1.1128      2.00000
      2       2.4774      2.00000
      3       2.9146      2.00000
      4       2.9146      2.00000
      5       3.2360      2.00000
      6       3.2568      2.00000
      7       3.2568      2.00000
      8       4.1949      2.00000
      9       4.5751      2.00000
     10       4.5751      2.00000
     11       5.0007      2.00000
     12       5.0007      2.00000
     13       5.0241      2.00000
     14       5.2842      2.00000
     15       5.5026      2.00000
     16       5.5026      2.00000
     17       5.6163      2.00000
     18       5.6163      2.00000
     19       5.6623      2.00000
     20       5.8940      2.00000
     21       5.8940      2.00000
     22       6.1683      2.00000
     23      10.4378      0.00000
     24      10.4378      0.00000
     25      14.6507      0.00000
     26      14.6507      0.00000
     27      17.2672      0.00000
     28      17.2672      0.00000
     29      18.1424      0.00000
     30      18.1424      0.00000
     31      18.6348      0.00000
     32      21.3728      0.00000
     33      21.3728      0.00000
     34      25.0874      0.00000
     35      27.6434      0.00000
     36      28.0605      0.00000
     37      28.3830      0.00000
     38      28.3830      0.00000
     39      28.7258      0.00000
     40      28.7258      0.00000
     41      30.1168      0.00000
     42      31.0951      0.00000
     43      31.0951      0.00000
     44      35.0704      0.00000
     45      38.1289      0.00000
     46      39.0795      0.00000
     47      39.0795      0.00000
     48      42.5262      0.00000

 k-point     4 :       0.3750    0.0000    0.0000
  band No.  band energies     occupation 
      1      -0.2308      2.00000
      2       1.9362      2.00000
      3       3.1886      2.00000
      4       3.1886      2.00000
      5       3.4495      2.00000
      6       3.5256      2.00000
      7       3.5256      2.00000
      8       3.9681      2.00000
      9       4.4092      2.00000
     10       4.4092      2.00000
     11       4.7801      2.00000
     12       4.7801      2.00000
     13       4.8529      2.00000
     14       5.0546      2.00000
     15       5.2808      2.00000
     16       5.2808      2.00000
     17       5.3391      2.00000
     18       5.3391      2.00000
     19       5.3697      2.00000
     20       5.5744      2.00000
     21       5.8943      2.00000
     22       5.8943      2.00000
     23      11.8584      0.00000
     24      11.8584      0.00000
     25      15.0694      0.00000
     26      15.0694      0.00000
     27      15.3179      0.00000
     28      15.3179      0.00000
     29      16.8309      0.00000
     30      16.8309      0.00000
     31      22.0192      0.00000
     32      22.6265      0.00000
     33      22.6265      0.00000
     34      25.5182      0.00000
     35      26.2040      0.00000
     36      26.2040      0.00000
     37      27.0016      0.00000
     38      28.1461      0.00000
     39      28.3389      0.00000
     40      31.3695      0.00000
     41      31.8509      0.00000
     42      31.8509      0.00000
     43      34.2519      0.00000
     44      34.2519      0.00000
     45      39.1289      0.00000
     46      39.1289      0.00000
     47      41.1240      0.00000
     48      41.6198      0.00000

 k-point     5 :       0.5000    0.0000    0.0000
  band No.  band energies     occupation 
      1       0.8815      2.00000
      2       0.8815      2.00000
      3       3.3240      2.00000
      4       3.3240      2.00000
      5       3.7061      2.00000
      6       3.7061      2.00000
      7       3.9100      2.00000
      8       3.9100      2.00000
      9       3.9100      2.00000
     10       3.9100      2.00000
     11       4.7621      2.00000
     12       4.7621      2.00000
     13       5.0450      2.00000
     14       5.0450      2.00000
     15       5.0450      2.00000
     16       5.0450      2.00000
     17       5.1667      2.00000
     18       5.1667      2.00000
     19       5.4716      2.00000
     20       5.4716      2.00000
     21       5.8943      2.00000
     22       5.8943      2.00000
     23      13.4996      0.00000
     24      13.4996      0.00000
     25      13.4996      0.00000
     26      13.4996      0.00000
     27      15.5826      0.00000
     28      15.5826      0.00000
     29      15.9982      0.00000
     30      15.9982      0.00000
     31      24.2613      0.00000
     32      24.2613      0.00000
     33      24.2613      0.00000
     34      24.2613      0.00000
     35      25.5264      0.00000
     36      25.5264      0.00000
     37      26.1505      0.00000
     38      26.1505      0.00000
     39      29.1316      0.00000
     40      29.1316      0.00000
     41      35.3313      0.00000
     42      35.3313      0.00000
     43      35.3313      0.00000
     44      35.3313      0.00000
     45      36.4585      0.00000
     46      36.4585      0.00000
     47      40.9386      0.00000
     48      40.9386      0.00000

 k-point     6 :       0.1250    0.1250    0.0000
  band No.  band energies     occupation 
      1      -1.4796      2.00000
      2       2.6837      2.00000
      3       2.6837      2.00000
      4       2.7670      2.00000
      5       3.1455      2.00000
      6       3.1455      2.00000
      7       3.1466      2.00000
      8       4.3199      2.00000
      9       4.4671      2.00000
     10       4.4801      2.00000
     11       5.1463      2.00000
     12       5.2207      2.00000
     13       5.4026      2.00000
     14       5.4587      2.00000
     15       5.4587      2.00000
     16       5.6207      2.00000
     17       5.6889      2.00000
     18       5.6889      2.00000
     19       5.8186      2.00000
     20       5.8186      2.00000
     21       5.8452      2.00000
     22       8.3009      0.00000
     23       8.3009      0.00000
     24       9.7510      0.00000
     25      14.4961      0.00000
     26      15.8710      0.00000
     27      15.8710      0.00000
     28      17.2534      0.00000
     29      19.4444      0.00000
     30      19.4444      0.00000
     31      19.8044      0.00000
     32      19.8044      0.00000
     33      20.8359      0.00000
     34      25.8073      0.00000
     35      26.2061      0.00000
     36      26.2061      0.00000
     37      27.8110      0.00000
     38      28.5696      0.00000
     39      28.5696      0.00000
     40      28.8457      0.00000
     41      30.0773      0.00000
     42      31.4480      0.00000
     43      32.8422      0.00000
     44      34.9876      0.00000
     45      35.6665      0.00000
     46      38.4258      0.00000
     47      39.4097      0.00000
     48      40.1411      0.00000

 k-point     7 :       0.2500    0.1250    0.0000
  band No.  band energies     occupation 
      1      -0.9329      2.00000
      2       2.5831      2.00000
      3       2.9265      2.00000
      4       2.9841      2.00000
      5       3.2794      2.00000
      6       3.2902      2.00000
      7       3.2967      2.00000
      8       4.1864      2.00000
      9       4.5716      2.00000
     10       4.5822      2.00000
     11       4.8647      2.00000
     12       4.9156      2.00000
     13       5.0420      2.00000
     14       5.1297      2.00000
     15       5.2845      2.00000
     16       5.4600      2.00000
     17       5.5137      2.00000
     18       5.6153      2.00000
     19       5.6287      2.00000
     20       5.8175      2.00000
     21       5.8195      2.00000
     22       6.7259      2.00000
     23       9.2743      0.00000
     24      10.7680      0.00000
     25      14.6706      0.00000
     26      15.2851      0.00000
     27      16.2183      0.00000
     28      17.4975      0.00000
     29      18.3512      0.00000
     30      18.7673      0.00000
     31      20.1478      0.00000
     32      20.3469      0.00000
     33      20.5259      0.00000
     34      25.9586      0.00000
     35      26.5542      0.00000
     36      26.7128      0.00000
     37      27.3695      0.00000
     38      28.8611      0.00000
     39      28.8657      0.00000
     40      30.6406      0.00000
     41      31.1831      0.00000
     42      31.8773      0.00000
     43      32.9389      0.00000
     44      34.9459      0.00000
     45      36.5527      0.00000
     46      37.6571      0.00000
     47      40.8356      0.00000
     48      41.8680      0.00000

 k-point     8 :       0.3750    0.1250    0.0000
  band No.  band energies     occupation 
      1      -0.0617      2.00000
      2       2.0647      2.00000
      3       3.2250      2.00000
      4       3.2554      2.00000
      5       3.4827      2.00000
      6       3.5176      2.00000
      7       3.5531      2.00000
      8       3.9744      2.00000
      9       4.2987      2.00000
     10       4.3823      2.00000
     11       4.6470      2.00000
     12       4.7137      2.00000
     13       4.7827      2.00000
     14       4.9724      2.00000
     15       5.2571      2.00000
     16       5.2920      2.00000
     17       5.3380      2.00000
     18       5.3989      2.00000
     19       5.4478      2.00000
     20       5.8147      2.00000
     21       5.8162      2.00000
     22       5.8322      2.00000
     23      10.4670      0.00000
     24      12.1382      0.00000
     25      13.3746      0.00000
     26      15.2303      0.00000
     27      15.5521      0.00000
     28      16.7758      0.00000
     29      17.0673      0.00000
     30      19.0319      0.00000
     31      21.2351      0.00000
     32      21.5513      0.00000
     33      22.2775      0.00000
     34      24.2085      0.00000
     35      24.7625      0.00000
     36      27.1605      0.00000
     37      29.2488      0.00000
     38      29.3909      0.00000
     39      29.4381      0.00000
     40      30.2808      0.00000
[...]
      2       2.2110      2.00000
      3       2.8493      2.00000
      4       2.8493      2.00000
      5       4.0675      2.00000
      6       4.0675      2.00000
      7       4.3027      2.00000
      8       4.3027      2.00000
      9       4.3934      2.00000
     10       4.3934      2.00000
     11       4.5281      2.00000
     12       4.5281      2.00000
     13       4.5738      2.00000
     14       4.5738      2.00000
     15       4.6656      2.00000
     16       4.6656      2.00000
     17       5.5678      2.00000
     18       5.5678      2.00000
     19       5.6628      2.00000
     20       5.6628      2.00000
     21       6.2176      2.00000
     22       6.2176      2.00000
     23       8.1213      0.00000
     24       8.1213      0.00000
     25      11.9145      0.00000
     26      11.9145      0.00000
     27      14.4219      0.00000
     28      14.4219      0.00000
     29      22.3594      0.00000
     30      22.3594      0.00000
     31      24.8795      0.00000
     32      24.8795      0.00000
     33      24.9750      0.00000
     34      24.9750      0.00000
     35      27.5378      0.00000
     36      27.5378      0.00000
     37      29.6250      0.00000
     38      29.6250      0.00000
     39      29.7208      0.00000
     40      29.7208      0.00000
     41      33.9880      0.00000
     42      33.9880      0.00000
     43      34.3956      0.00000
     44      34.3956      0.00000
     45      36.1191      0.00000
     46      36.1191      0.00000
     47      38.4392      0.00000
     48      38.4392      0.00000

 k-point    31 :       0.5000    0.5000    0.2500
  band No.  band energies     occupation 
      1       2.5454      2.00000
      2       2.5454      2.00000
      3       2.5454      2.00000
      4       2.5454      2.00000
      5       4.2509      2.00000
      6       4.2509      2.00000
      7       4.2509      2.00000
      8       4.2509      2.00000
      9       4.5545      2.00000
     10       4.5545      2.00000
     11       4.5545      2.00000
     12       4.5545      2.00000
     13       4.6054      2.00000
     14       4.6054      2.00000
     15       4.6054      2.00000
     16       4.6054      2.00000
     17       5.5566      2.00000
     18       5.5566      2.00000
     19       5.5566      2.00000
     20       5.5566      2.00000
     21       6.9348      2.00000
     22       6.9348      2.00000
     23       6.9348      2.00000
     24       6.9348      2.00000
     25      12.9715      0.00000
     26      12.9715      0.00000
     27      12.9715      0.00000
     28      12.9715      0.00000
     29      23.4897      0.00000
     30      23.4897      0.00000
     31      23.4897      0.00000
     32      23.4897      0.00000
     33      28.1765      0.00000
     34      28.1765      0.00000
     35      28.1765      0.00000
     36      28.1765      0.00000
     37      28.7195      0.00000
     38      28.7195      0.00000
     39      28.7195      0.00000
     40      28.7195      0.00000
     41      34.4739      0.00000
     42      34.4739      0.00000
     43      34.4739      0.00000
     44      34.4739      0.00000
     45      35.6007      0.00000
     46      35.6007      0.00000
     47      35.6007      0.00000
     48      35.6007      0.00000

 k-point    32 :       0.3750    0.3750    0.3750
  band No.  band energies     occupation 
      1       1.9469      2.00000
      2       2.6476      2.00000
      3       2.6476      2.00000
      4       2.6476      2.00000
      5       4.1826      2.00000
      6       4.1826      2.00000
      7       4.1826      2.00000
      8       4.4401      2.00000
      9       4.4401      2.00000
     10       4.5550      2.00000
     11       4.5550      2.00000
     12       4.5550      2.00000
     13       4.7447      2.00000
     14       4.7447      2.00000
     15       4.7447      2.00000
     16       4.8151      2.00000
     17       5.5992      2.00000
     18       5.5992      2.00000
     19       5.7675      2.00000
     20       5.7675      2.00000
     21       5.7675      2.00000
     22       7.5019      0.00000
     23       7.5019      0.00000
     24       7.5019      0.00000
     25      11.7194      0.00000
     26      11.7194      0.00000
     27      11.7194      0.00000
     28      14.1537      0.00000
     29      24.6280      0.00000
     30      24.6280      0.00000
     31      24.6280      0.00000
     32      26.3969      0.00000
     33      26.3969      0.00000
     34      26.3969      0.00000
     35      27.8993      0.00000
     36      27.8993      0.00000
     37      27.8993      0.00000
     38      28.7264      0.00000
     39      29.2956      0.00000
     40      29.2956      0.00000
     41      33.1100      0.00000
     42      33.1100      0.00000
     43      35.5519      0.00000
     44      35.5519      0.00000
     45      35.5519      0.00000
     46      36.0025      0.00000
     47      36.0025      0.00000
     48      36.0025      0.00000

 k-point    33 :       0.5000    0.3750    0.3750
  band No.  band energies     occupation 
      1       2.3083      2.00000
      2       2.3083      2.00000
      3       2.6139      2.00000
      4       2.6139      2.00000
      5       4.2304      2.00000
      6       4.2304      2.00000
      7       4.3544      2.00000
      8       4.3544      2.00000
      9       4.4532      2.00000
     10       4.4532      2.00000
     11       4.5006      2.00000
     12       4.5006      2.00000
     13       4.9551      2.00000
     14       4.9551      2.00000
     15       4.9800      2.00000
     16       4.9800      2.00000
     17       5.7306      2.00000
     18       5.7306      2.00000
     19       5.7383      2.00000
     20       5.7383      2.00000
     21       6.1711      2.00000
     22       6.1711      2.00000
     23       7.6155      0.00000
     24       7.6155      0.00000
     25      11.1370      0.00000
     26      11.1370      0.00000
     27      12.7284      0.00000
     28      12.7284      0.00000
     29      25.3940      0.00000
     30      25.3940      0.00000
     31      25.9863      0.00000
     32      25.9863      0.00000
     33      27.6348      0.00000
     34      27.6348      0.00000
     35      27.7064      0.00000
     36      27.7064      0.00000
     37      28.7785      0.00000
     38      28.7785      0.00000
     39      29.2820      0.00000
     40      29.2820      0.00000
     41      33.5486      0.00000
     42      33.5486      0.00000
     43      33.6106      0.00000
     44      33.6106      0.00000
     45      34.1440      0.00000
     46      34.1440      0.00000
     47      36.0507      0.00000
     48      36.0507      0.00000

 k-point    34 :       0.5000    0.5000    0.3750
  band No.  band energies     occupation 
      1       2.4350      2.00000
      2       2.4350      2.00000
      3       2.4350      2.00000
      4       2.4350      2.00000
      5       4.3386      2.00000
      6       4.3386      2.00000
      7       4.3386      2.00000
      8       4.3386      2.00000
      9       4.4203      2.00000
     10       4.4203      2.00000
     11       4.4203      2.00000
     12       4.4203      2.00000
     13       5.2747      2.00000
     14       5.2747      2.00000
     15       5.2747      2.00000
     16       5.2747      2.00000
     17       5.7039      2.00000
     18       5.7039      2.00000
     19       5.7039      2.00000
     20       5.7039      2.00000
     21       6.6992      2.00000
     22       6.6992      2.00000
     23       6.6992      2.00000
     24       6.6992      2.00000
     25      11.5567      0.00000
     26      11.5567      0.00000
     27      11.5567      0.00000
     28      11.5567      0.00000
     29      26.6416      0.00000
     30      26.6416      0.00000
     31      26.6416      0.00000
     32      26.6416      0.00000
     33      28.6728      0.00000
     34      28.6728      0.00000
     35      28.6728      0.00000
     36      28.6728      0.00000
     37      28.7780      0.00000
     38      28.7780      0.00000
     39      28.7780      0.00000
     40      28.7780      0.00000
     41      32.8867      0.00000
     42      32.8867      0.00000
     43      32.8867      0.00000
     44      32.8867      0.00000
     45      33.9247      0.00000
     46      33.9247      0.00000
     47      33.9247      0.00000
     48      33.9247      0.00000

 k-point    35 :       0.5000    0.5000    0.5000
  band No.  band energies     occupation 
      1       2.3945      2.00000
      2       2.3945      2.00000
      3       2.3945      2.00000
      4       2.3945      2.00000
      5       4.3730      2.00000
      6       4.3730      2.00000
      7       4.3730      2.00000
      8       4.3730      2.00000
      9       4.3730      2.00000
     10       4.3730      2.00000
     11       4.3730      2.00000
     12       4.3730      2.00000
     13       5.7566      2.00000
     14       5.7566      2.00000
     15       5.7566      2.00000
     16       5.7566      2.00000
     17       5.7566      2.00000
     18       5.7566      2.00000
     19       5.7566      2.00000
     20       5.7566      2.00000
     21       6.4131      2.00000
     22       6.4131      2.00000
     23       6.4131      2.00000
     24       6.4131      2.00000
     25      11.0325      0.00000
     26      11.0325      0.00000
     27      11.0325      0.00000
     28      11.0325      0.00000
     29      28.3147      0.00000
     30      28.3147      0.00000
     31      28.3147      0.00000
     32      28.3147      0.00000
     33      29.1494      0.00000
     34      29.1494      0.00000
     35      29.1494      0.00000
     36      29.1494      0.00000
     37      29.1494      0.00000
     38      29.1494      0.00000
     39      29.1494      0.00000
     40      29.1494      0.00000
     41      32.1835      0.00000
     42      32.1835      0.00000
     43      32.1835      0.00000
     44      32.1835      0.00000
     45      32.1835      0.00000
     46      32.1835      0.00000
     47      32.1835      0.00000
     48      32.1835      0.00000


--------------------------------------------------------------------------------------------------------


 soft charge-density along one line, spin component           1
         0         1         2         3         4         5         6         7         8         9
 total charge-density along one line
 
 pseudopotential strength for first ion, spin component:           1
 -3.029   0.000  -0.000  -0.000  -0.000  -4.622  -0.000   0.000
  0.000  -3.029  -0.000   0.000   0.000  -0.000  -4.622   0.000
 -0.000  -0.000  -3.012   0.000   0.000   0.000   0.000  -4.633
 -0.000   0.000   0.000  -3.029   0.000   0.000  -0.000  -0.000
 -0.000   0.000   0.000   0.000  -3.012   0.000  -0.000  -0.000
 -4.622  -0.000   0.000   0.000   0.000  10.218   0.000  -0.000
 -0.000  -4.622   0.000  -0.000  -0.000   0.000  10.218  -0.000
  0.000   0.000  -4.633  -0.000  -0.000  -0.000  -0.000  10.227
  0.000  -0.000  -0.000  -4.622  -0.000  -0.000   0.000   0.000
  0.000  -0.000  -0.000  -0.000  -4.633  -0.000   0.000  -0.000
 -0.000   0.000  -0.000  -0.000   0.000   0.000   0.000   0.000
 -0.000   0.000   0.000  -0.000   0.000   0.000   0.000  -0.000
  0.000  -0.000  -0.000   0.000  -0.000  -0.000   0.000   0.000
  0.000   0.000  -0.000   0.000  -0.000   0.000   0.000   0.000
  0.000   0.000   0.000  -0.000   0.000   0.000   0.000   0.000
 -0.000  -0.000  -0.000  -0.000  -0.000   0.000  -0.000   0.000
 -0.000   0.000  -0.000  -0.000   0.000   0.000   0.000  -0.000
  0.000  -0.000  -0.000  -0.000   0.000   0.000   0.000   0.000
 total augmentation occupancy for first ion, spin component:           1
  1.907   0.000  -0.000   0.000  -0.000  -0.016  -0.000   0.000  -0.000   0.000  -0.000  -0.000   0.000   0.000   0.000   0.000
  0.000   1.907   0.000   0.000  -0.000  -0.000  -0.016   0.000  -0.000   0.000   0.000   0.000   0.000  -0.000  -0.000  -0.000
 -0.000   0.000   1.926   0.000   0.000   0.000   0.000  -0.034   0.000  -0.000  -0.000  -0.000   0.000   0.000  -0.000   0.000
  0.000   0.000   0.000   1.907   0.000  -0.000  -0.000   0.000  -0.016  -0.000  -0.000  -0.000  -0.000  -0.000  -0.000   0.000
 -0.000  -0.000   0.000   0.000   1.926   0.000   0.000  -0.000  -0.000  -0.034  -0.000   0.000   0.000   0.000   0.000  -0.000
 -0.016  -0.000   0.000  -0.000   0.000   0.017   0.000  -0.000   0.000   0.000   0.000  -0.000   0.000  -0.000  -0.000   0.000
 -0.000  -0.016  -0.000  -0.000   0.000   0.000   0.017   0.000   0.000  -0.000   0.000   0.000   0.000  -0.000  -0.000   0.000
  0.000   0.000  -0.034   0.000  -0.000  -0.000   0.000   0.016   0.000   0.000   0.000  -0.000   0.000   0.000   0.000   0.000
 -0.000  -0.000   0.000  -0.016  -0.000   0.000   0.000   0.000   0.017   0.000   0.000  -0.000  -0.000   0.000   0.000   0.000
  0.000   0.000  -0.000  -0.000  -0.034   0.000  -0.000   0.000   0.000   0.016   0.000  -0.000  -0.000   0.000  -0.000   0.000
 -0.000  -0.000   0.000  -0.000   0.000   0.000   0.000  -0.000  -0.000   0.000   1.776  -0.170   0.000  -0.000   0.000   0.000
 -0.000  -0.000  -0.000  -0.000   0.000  -0.000  -0.000  -0.000  -0.000  -0.000  -0.170   0.022  -0.000  -0.000  -0.000   0.000
  0.000   0.000   0.000  -0.000   0.000   0.000   0.000   0.000  -0.000   0.000   0.000   0.000   0.230   0.000   0.000  -0.015
  0.000  -0.000   0.000  -0.000   0.000  -0.000  -0.000   0.000   0.000   0.000  -0.000   0.000   0.000   0.230   0.000  -0.000
  0.000  -0.000   0.000  -0.000  -0.000  -0.000  -0.000  -0.000   0.000  -0.000   0.000  -0.000   0.000   0.000   0.230  -0.000
  0.000  -0.000   0.000   0.000   0.000   0.000   0.000   0.000   0.000  -0.000   0.000   0.000  -0.015  -0.000  -0.000   0.001
  0.000  -0.000   0.000   0.000   0.000   0.000  -0.000   0.000  -0.000  -0.000   0.000   0.000  -0.000  -0.015  -0.000   0.000
  0.000  -0.000   0.000  -0.000   0.000  -0.000  -0.000   0.000   0.000   0.000  -0.000   0.000  -0.000  -0.000  -0.015   0.000


------------------------ aborting loop because EDIFF is reached ----------------------------------------


    CHARGE:  cpu time      0.0054: real time      0.0055
    FORLOC:  cpu time      0.0001: real time      0.0002
    FORNL :  cpu time      0.0143: real time      0.0144
    STRESS:  cpu time      0.0896: real time      0.0896
    FORCOR:  cpu time      0.0018: real time      0.0020
    FORHAR:  cpu time      0.0005: real time      0.0006
    MIXING:  cpu time      0.0005: real time      0.0005
    OFIELD:  cpu time      0.0001: real time      0.0001

  FORCE on cell =-STRESS in cart. coord.  units (eV):
  Direction    XX          YY          ZZ          XY          YZ          ZX
  --------------------------------------------------------------------------------------
  Alpha Z   243.24376   243.24376   243.24376
  Ewald   -1464.35539 -1464.35539 -1464.35539    -0.00000     0.00000     0.00000
  Hartree   456.64098   456.64098   456.64098    -0.00000    -0.00000    -0.00000
  E(xc)    -257.25547  -257.25547  -257.25547     0.00000     0.00000     0.00000
  Local     368.93415   368.93415   368.93415     0.00000    -0.00000    -0.00000
  n-local   -79.09352   -87.48130   -89.26408     0.80822     2.63686     0.97998
  augment   379.24141   379.24141   379.24141     0.00000     0.00000    -0.00000
  Kinetic   366.38815   358.25386   352.36805    -2.55252    -0.06132    -1.03447
  Fock        0.00000     0.00000     0.00000     0.00000     0.00000     0.00000
  -------------------------------------------------------------------------------------
  Total       0.17317     0.17317     0.17317     0.00000     0.00000     0.00000
  in kB       5.76741     5.76741     5.76741     0.00000     0.00000     0.00000
  external pressure =        5.77 kB  Pullay stress =        0.00 kB


 VOLUME and BASIS-vectors are now :
 -----------------------------------------------------------------------------
  energy-cutoff  :      384.08
  volume of cell :       48.11
      direct lattice vectors                 reciprocal lattice vectors
     3.636890000  0.000000000  0.000000000     0.274960200 -0.000000000  0.000000000
     0.000000000  3.636890000  0.000000000     0.000000000  0.274960200  0.000000000
     0.000000000  0.000000000  3.636890000    -0.000000000 -0.000000000  0.274960200

  length of vectors
     3.636890000  3.636890000  3.636890000     0.274960200  0.274960200  0.274960200


 FORCES acting on ions
    electron-ion (+dipol)            ewald-force                    non-local-force                 convergence-correction
 -----------------------------------------------------------------------------------------------
   -.204E-13 -.532E-13 -.699E-13   -.138E-13 -.565E-14 0.369E-14   -.471E-23 -.515E-24 0.194E-23   -.191E-13 0.120E-13 0.292E-13
   -.217E-13 0.694E-12 0.684E-12   -.130E-13 0.394E-14 0.628E-14   -.212E-24 0.800E-24 -.407E-23   -.173E-13 0.117E-13 0.127E-13
   0.703E-12 -.464E-13 -.985E-12   0.128E-13 -.462E-14 0.646E-14   -.119E-23 -.401E-23 0.104E-23   -.135E-13 -.104E-14 0.708E-15
   0.704E-12 0.704E-12 0.841E-12   0.136E-13 0.498E-14 -.132E-13   -.124E-23 0.227E-23 0.484E-23   -.323E-13 -.576E-14 0.328E-13
 -----------------------------------------------------------------------------------------------
   0.136E-11 0.130E-11 0.470E-12   -.323E-15 -.136E-14 0.323E-14   -.735E-23 -.146E-23 0.375E-23   -.823E-13 0.168E-13 0.755E-13
 
 
 POSITION                                       TOTAL-FORCE (eV/Angst)
 -----------------------------------------------------------------------------------
      0.00000      0.00000      0.00000         0.000000     -0.000000      0.000000
      0.00000      1.81845      1.81845        -0.000000     -0.000000     -0.000000
      1.81845      0.00000      1.81845        -0.000000      0.000000     -0.000000
      1.81845      1.81845      0.00000         0.000000      0.000000      0.000000
 -----------------------------------------------------------------------------------
    total drift:                                0.000000      0.000000      0.000000


--------------------------------------------------------------------------------------------------------



  FREE ENERGIE OF THE ION-ELECTRON SYSTEM (eV)
  ---------------------------------------------------
  free  energy   TOTEN  =       -14.92007203 eV

  energy  without entropy=      -14.91740337  energy(sigma->0) =      -14.91873770
 


--------------------------------------------------------------------------------------------------------


    POTLOK:  cpu time      0.0038: real time      0.0038


--------------------------------------------------------------------------------------------------------


 writing wavefunctions
     LOOP+:  cpu time     19.8051: real time     19.8261
    4ORBIT:  cpu time      0.0000: real time      0.0000

 total amount of memory used by VASP MPI-rank0    35388. kBytes
=======================================================================

   base      :      30000. kBytes
   nonl-proj :       4409. kBytes
   fftplans  :         78. kBytes
   grid      :        302. kBytes
   one-center:         62. kBytes
   wavefun   :        537. kBytes
 
  
  
 General timing and accounting informations for this job:
 ========================================================
  
                  Total CPU time used (sec):       20.353
                            User time (sec):       19.925
                          System time (sec):        0.428
                         Elapsed time (sec):       20.526
  
                   Maximum memory used (kb):      227312.
                   Average memory used (kb):          N/A
  
                          Minor page faults:        19558
                          Major page faults:            0
                 Voluntary context switches:         3794
