<?xml version="1.0" encoding="ISO-8859-1"?>
<modeling>
 <generator>
  <i name="program" type="string">vasp </i>
  <i name="version" type="string">6.4.3  </i>
  <i name="subversion" type="string">19Mar24 (build Jun 26 2024 13:02:28) complex                          parallel </i>
  <i name="platform" type="string">LinuxIFC </i>
  <i name="date" type="string">2025 08 08 </i>
  <i name="time" type="string">18:20:09 </i>
 </generator>
 <incar>
  <i type="string" name="SYSTEM">Cu</i>
  <i type="int" name="IBRION">    -1</i>
  <i type="int" name="ISYM">     2</i>
  <i name="ENCUT">    384.07980000</i>
  <i type="int" name="ISMEAR">     0</i>
  <i name="SIGMA">      0.05000000</i>
  <i type="logical" name="LWAVE"> T  </i>
  <i type="logical" name="LCHARG"> T  </i>
 </incar>
 <primitive_cell>
  <structure name="primitive_cell" >
   <crystal>
    <varray name="basis" >
     <v>       1.81844500      -1.81844500       0.00000000 </v>
     <v>       1.81844500       0.00000000       1.81844500 </v>
     <v>      -0.00000000      -1.81844500       1.81844500 </v>
    </varray>
    <i name="volume">     12.02625771 </i>
    <varray name="rec_basis" >
     <v>       0.27496020      -0.27496020      -0.27496020 </v>
     <v>       0.27496020       0.27496020       0.27496020 </v>
     <v>      -0.27496020      -0.27496020       0.27496020 </v>
    </varray>
   </crystal>
   <varray name="positions" >
    <v>       0.00000000       0.00000000       0.00000000 </v>
   </varray>
  </structure>
  <varray name="primitive_index" >
   <v type="int" >        1 </v>
  </varray>
 </primitive_cell>
 <kpoints>
  <generation param="Gamma">
   <v type="int" name="divisions">       8        8        8 </v>
   <v name="usershift">      0.00000000       0.00000000       0.00000000 </v>
   <v name="genvec1">      0.12500000       0.00000000       0.00000000 </v>
   <v name="genvec2">      0.00000000       0.12500000       0.00000000 </v>
   <v name="genvec3">      0.00000000      -0.00000000       0.12500000 </v>
   <v name="shift">      0.00000000       0.00000000       0.00000000 </v>
  </generation>
  <varray name="kpointlist" >
   <v>       0.00000000       0.00000000       0.00000000 </v>
   <v>       0.12500000       0.00000000       0.00000000 </v>
   <v>       0.25000000       0.00000000       0.00000000 </v>
   <v>       0.37500000       0.00000000       0.00000000 </v>
   <v>       0.50000000       0.00000000       0.00000000 </v>
   <v>       0.12500000       0.12500000       0.00000000 </v>
   <v>       0.25000000       0.12500000       0.00000000 </v>
   <v>       0.37500000       0.12500000       0.00000000 </v>
   <v>       0.50000000       0.12500000       0.00000000 </v>
   <v>       0.25000000       0.25000000       0.00000000 </v>
   <v>       0.37500000       0.25000000       0.00000000 </v>
   <v>       0.50000000       0.25000000       0.00000000 </v>
   <v>       0.37500000       0.37500000       0.00000000 </v>
   <v>       0.50000000       0.37500000       0.00000000 </v>
   <v>       0.50000000       0.50000000       0.00000000 </v>
   <v>       0.12500000       0.12500000       0.12500000 </v>
   <v>       0.25000000       0.12500000       0.12500000 </v>
   <v>       0.37500000       0.12500000       0.12500000 </v>
   <v>       0.50000000       0.12500000       0.12500000 </v>
   <v>       0.25000000       0.25000000       0.12500000 </v>
   <v>       0.37500000       0.25000000       0.12500000 </v>
   <v>       0.50000000       0.25000000       0.12500000 </v>
   <v>       0.37500000       0.37500000       0.12500000 </v>
   <v>       0.50000000       0.37500000       0.12500000 </v>
   <v>       0.50000000       0.50000000       0.12500000 </v>
   <v>       0.25000000       0.25000000       0.25000000 </v>
   <v>       0.37500000       0.25000000       0.25000000 </v>
   <v>       0.50000000       0.25000000       0.25000000 </v>
   <v>       0.37500000       0.37500000       0.25000000 </v>
   <v>       0.50000000       0.37500000       0.25000000 </v>
   <v>       0.50000000       0.50000000       0.25000000 </v>
   <v>       0.37500000       0.37500000       0.37500000 </v>
   <v>       0.50000000       0.37500000       0.37500000 </v>
   <v>       0.50000000       0.50000000       0.37500000 </v>
   <v>       0.50000000       0.50000000       0.50000000 </v>
  </varray>
  <varray name="weights" >
   <v>       0.00195312 </v>
   <v>       0.01171875 </v>
   <v>       0.01171875 </v>
   <v>       0.01171875 </v>
   <v>       0.00585938 </v>
   <v>       0.02343750 </v>
   <v>       0.04687500 </v>
   <v>       0.04687500 </v>
   <v>       0.02343750 </v>
   <v>       0.02343750 </v>
   <v>       0.04687500 </v>
   <v>       0.02343750 </v>
   <v>       0.02343750 </v>
   <v>       0.02343750 </v>
   <v>       0.00585938 </v>
   <v>       0.01562500 </v>
   <v>       0.04687500 </v>
   <v>       0.04687500 </v>
   <v>       0.02343750 </v>
   <v>       0.04687500 </v>
   <v>       0.09375000 </v>
   <v>       0.04687500 </v>
   <v>       0.04687500 </v>
   <v>       0.04687500 </v>
   <v>       0.01171875 </v>
   <v>       0.01562500 </v>
   <v>       0.04687500 </v>
   <v>       0.02343750 </v>
   <v>       0.04687500 </v>
   <v>       0.04687500 </v>
   <v>       0.01171875 </v>
   <v>       0.01562500 </v>
   <v>       0.02343750 </v>
   <v>       0.01171875 </v>
   <v>       0.00195312 </v>
  </varray>
 </kpoints>
 <parameters>
  <separator name="general" >
   <i type="string" name="SYSTEM">Cu</i>
   <i type="logical" name="LCOMPAT"> F  </i>
  </separator>
  <separator name="electronic" >
   <i type="string" name="PREC">normal</i>
   <i name="ENMAX">    384.07980000</i>
   <i name="ENAUG">    586.98000000</i>
   <i name="EDIFF">      0.00010000</i>
   <i type="int" name="IALGO">    38</i>
   <i type="int" name="IWAVPR">    10</i>
   <i type="int" name="NBANDS">    48</i>
   <i type="int" name="NBANDSLOW">    -1</i>
   <i type="int" name="NBANDSHIGH">    -1</i>
   <i name="NELECT">     44.00000000</i>
   <i type="int" name="TURBO">     0</i>
   <i type="int" name="IRESTART">     0</i>
   <i type="int" name="NREBOOT">     0</i>
   <i type="int" name="NMIN">     0</i>
   <i name="EREF">      0.00000000</i>
   <separator name="electronic smearing" >
    <i type="int" name="ISMEAR">     0</i>
    <i name="SIGMA">      0.05000000</i>
    <i name="KSPACING">      0.50000000</i>
    <i type="logical" name="KGAMMA"> T  </i>
    <i type="logical" name="KBLOWUP"> T  </i>
   </separator>
   <separator name="electronic projectors" >
    <i type="logical" name="LREAL"> F  </i>
    <v name="ROPT">      0.00000000</v>
    <i type="int" name="LMAXPAW">  -100</i>
    <i type="int" name="LMAXMIX">     2</i>
    <i type="logical" name="NLSPLINE"> F  </i>
   </separator>
   <separator name="electronic startup" >
    <i type="int" name="ISTART">     1</i>
    <i type="int" name="ICHARG">     0</i>
    <i type="int" name="INIWAV">     1</i>
   </separator>
   <separator name="electronic spin" >
    <i type="int" name="ISPIN">     1</i>
    <i type="logical" name="LNONCOLLINEAR"> F  </i>
    <v name="MAGMOM">      1.00000000      1.00000000      1.00000000      1.00000000</v>
    <i name="NUPDOWN">     -1.00000000</i>
    <i type="logical" name="LSORBIT"> F  </i>
    <v name="SAXIS">      0.00000000      0.00000000      1.00000000</v>
    <i type="logical" name="LSPIRAL"> F  </i>
    <v name="QSPIRAL">      0.00000000      0.00000000      0.00000000</v>
    <i type="logical" name="LZEROZ"> F  </i>
   </separator>
   <separator name="electronic exchange-correlation" >
    <i type="logical" name="LASPH"> F  </i>
   </separator>
   <separator name="electronic convergence" >
    <i type="int" name="NELM">    60</i>
    <i type="int" name="NELMDL">     0</i>
    <i type="int" name="NELMIN">     2</i>
    <i name="ENINI">    384.07980000</i>
    <separator name="electronic convergence detail" >
     <i type="logical" name="LDIAG"> T  </i>
     <i type="logical" name="LSUBROT"> F  </i>
     <i name="WEIMIN">      0.00000000</i>
     <i name="EBREAK">      0.00000052</i>
     <i name="DEPER">      0.30000000</i>
     <i type="int" name="NRMM">     4</i>
     <i name="TIME">      0.40000000</i>
    </separator>
   </separator>
   <separator name="electronic mixer" >
    <i name="AMIX">      0.40000000</i>
    <i name="BMIX">      1.00000000</i>
    <i name="AMIN">      0.10000000</i>
    <i name="AMIX_MAG">      1.60000000</i>
    <i name="BMIX_MAG">      1.00000000</i>
    <separator name="electronic mixer details" >
     <i type="int" name="IMIX">     4</i>
     <i type="logical" name="MIXFIRST"> F  </i>
     <i type="int" name="MAXMIX">   -45</i>
     <i name="WC">    100.00000000</i>
     <i type="int" name="INIMIX">     1</i>
     <i type="int" name="MIXPRE">     1</i>
     <i type="int" name="MREMOVE">     5</i>
    </separator>
   </separator>
   <separator name="electronic dipolcorrection" >
    <i type="logical" name="LDIPOL"> F  </i>
    <i type="logical" name="LMONO"> F  </i>
    <i type="int" name="IDIPOL">     0</i>
    <i name="EPSILON">      1.00000000</i>
    <v name="DIPOL">   -100.00000000   -100.00000000   -100.00000000</v>
    <i name="EFIELD">      0.00000000</i>
    <i type="logical" name="LVACPOTAV"> F  </i>
   </separator>
  </separator>
  <separator name="grids" >
   <i type="int" name="NGX">    18</i>
   <i type="int" name="NGY">    18</i>
   <i type="int" name="NGZ">    18</i>
   <i type="int" name="NGXF">    36</i>
   <i type="int" name="NGYF">    36</i>
   <i type="int" name="NGZF">    36</i>
   <i type="logical" name="ADDGRID"> F  </i>
  </separator>
  <separator name="ionic" >
   <i type="int" name="NSW">     0</i>
   <i type="int" name="IBRION">    -1</i>
   <i type="int" name="MDALGO">     0</i>
   <i type="int" name="ISIF">     2</i>
   <i name="PSTRESS">      0.00000000</i>
   <i name="EDIFFG">      0.00100000</i>
   <i type="int" name="NFREE">     0</i>
   <i name="POTIM">      0.50000000</i>
   <i name="SMASS">     -3.00000000</i>
   <i name="SCALEE">      1.00000000</i>
  </separator>
  <separator name="ionic md" >
   <i name="TEBEG">      0.00010000</i>
   <i name="TEEND">      0.00010000</i>
   <i type="int" name="NBLOCK">     1</i>
   <i type="int" name="KBLOCK">     1</i>
   <i type="int" name="NPACO">   256</i>
   <i name="APACO">     10.00000000</i>
  </separator>
  <separator name="symmetry" >
   <i type="int" name="ISYM">     2</i>
   <i name="SYMPREC">      0.00001000</i>
  </separator>
  <separator name="dos" >
   <i type="int" name="LORBIT">     0</i>
   <v name="RWIGS">     -1.00000000</v>
   <i type="int" name="NEDOS">   301</i>
   <i name="EMIN">     10.00000000</i>
   <i name="EMAX">    -10.00000000</i>
   <i name="EFERMI">      0.00000000</i>
  </separator>
  <separator name="writing" >
   <i type="int" name="NWRITE">     2</i>
   <i type="logical" name="LWAVE"> T  </i>
   <i type="logical" name="LDOWNSAMPLE"> F  </i>
   <i type="logical" name="LCHARG"> T  </i>
   <i type="logical" name="LPARD"> F  </i>
   <i type="logical" name="LVTOT"> F  </i>
   <i type="logical" name="LVHAR"> F  </i>
   <i type="logical" name="LELF"> F  </i>
   <i type="logical" name="LOPTICS"> F  </i>
   <v name="STM">      0.00000000      0.00000000      0.00000000      0.00000000      0.00000000      0.00000000      0.00000000</v>
  </separator>
  <separator name="performance" >
   <i type="int" name="NPAR">    48</i>
   <i type="int" name="NSIM">     4</i>
   <i type="int" name="NBLK">    -1</i>
   <i type="logical" name="LPLANE"> T  </i>
   <i type="logical" name="LSCALAPACK"> T  </i>
   <i type="logical" name="LSCAAWARE"> T  </i>
   <i type="logical" name="LSCALU"> F  </i>
   <i type="logical" name="LASYNC"> F  </i>
   <i type="logical" name="LORBITALREAL"> F  </i>
  </separator>
  <separator name="miscellaneous" >
   <i type="int" name="IDIOT">     3</i>
   <i type="int" name="PHON_NSTRUCT">    -1</i>
   <i type="logical" name="LMUSIC"> F  </i>
   <v name="POMASS">     63.54600000</v>
   <v name="DARWINR">      0.00000000</v>
   <v name="DARWINV">      1.00000000</v>
   <i type="logical" name="LCORR"> T  </i>
  </separator>
  <i type="logical" name="GGA_COMPAT"> T  </i>
  <i type="logical" name="LBERRY"> F  </i>
  <i type="int" name="ICORELEVEL">     0</i>
  <i type="logical" name="LDAU"> F  </i>
  <i type="int" name="I_CONSTRAINED_M">     0</i>
  <separator name="electronic exchange-correlation" >
   <i type="string" name="GGA    ">PE</i>
   <i type="string" name="XC_C">1</i>
   <i type="int" name="VOSKOWN">     0</i>
   <i type="logical" name="LHFCALC"> F  </i>
   <i type="string" name="PRECFOCK"></i>
   <i type="logical" name="LSYMGRAD"> F  </i>
   <i type="logical" name="LHFONE"> F  </i>
   <i type="logical" name="LRHFCALC"> F  </i>
   <i type="logical" name="LTHOMAS"> F  </i>
   <i type="logical" name="LMODELHF"> F  </i>
   <i type="logical" name="LFOCKACE"> F  </i>
   <i name="ENCUT4O">     -1.00000000</i>
   <i type="int" name="EXXOEP">     0</i>
   <i type="int" name="FOURORBIT">     0</i>
   <i name="AEXX">      0.00000000</i>
   <i name="HFALPHA">      0.00000000</i>
   <i name="MCALPHA">      0.00000000</i>
   <i name="ALDAX">      1.00000000</i>
   <i name="AGGAX">      1.00000000</i>
   <i name="AMGGAX">      1.00000000</i>
   <i name="ALDAC">      1.00000000</i>
   <i name="AGGAC">      1.00000000</i>
   <i name="AMGGAC">      1.00000000</i>
   <i type="int" name="NKREDX">     1</i>
   <i type="int" name="NKREDY">     1</i>
   <i type="int" name="NKREDZ">     1</i>
   <i type="logical" name="SHIFTRED"> F  </i>
   <i type="logical" name="ODDONLY"> F  </i>
   <i type="logical" name="EVENONLY"> F  </i>
   <i type="int" name="LMAXFOCK">     0</i>
   <i type="int" name="NMAXFOCKAE">     0</i>
   <i type="logical" name="LFOCKAEDFT"> F  </i>
   <i name="HFSCREEN">      0.00000000</i>
   <i name="HFSCREENC">      0.00000000</i>
   <i type="int" name="NBANDSGWLOW">     0</i>
  </separator>
  <separator name="vdW DFT" >
   <i type="logical" name="LUSE_VDW"> F  </i>
   <i type="int" name="IVDW_NL">    -1</i>
   <i type="logical" name="LSPIN_VDW"> F  </i>
   <i name="ZAB_VDW">     -0.84910000</i>
   <i name="GAMMA_VDW">      1.39626340</i>
   <i name="ALPHA_VDW">      0.00000000</i>
   <i name="PARAM1">      0.12340000</i>
   <i name="PARAM2">      1.00000000</i>
   <i name="BPARAM">      6.30000000</i>
   <i name="CPARAM">      0.00930000</i>
  </separator>
  <separator name="model GW" >
   <i type="int" name="MODEL_GW">     0</i>
   <i name="MODEL_EPS0">      7.21575462</i>
   <i name="MODEL_ALPHA">      1.00000000</i>
  </separator>
  <separator name="linear response parameters" >
   <i type="logical" name="LEPSILON"> F  </i>
   <i type="logical" name="LRPA"> F  </i>
   <i type="logical" name="LNABLA"> F  </i>
   <i type="logical" name="LVEL"> F  </i>
   <i name="CSHIFT">      0.10000000</i>
   <i name="OMEGAMAX">     -1.00000000</i>
   <i name="DEG_THRESHOLD">      0.00200000</i>
   <i name="RTIME">     -0.10000000</i>
   <i name="WPLASMAI">      0.00000000</i>
   <v name="DFIELD">      0.00000000      0.00000000      0.00000000</v>
   <v name="WPLASMA">      0.00000000      0.00000000      0.00000000      0.00000000      0.00000000      0.00000000      0.00000000      0.00000000      0.00000000</v>
  </separator>
  <separator name="orbital magnetization" >
   <i type="logical" name="NUCIND"> F  </i>
   <v name="MAGPOS">      0.00000000      0.00000000      0.00000000</v>
   <i type="logical" name="LNICSALL"> T  </i>
   <i type="logical" name="ORBITALMAG"> F  </i>
   <i type="logical" name="LMAGBLOCH"> F  </i>
   <i type="logical" name="LCHIMAG"> F  </i>
   <i type="logical" name="LGAUGE"> T  </i>
   <i type="int" name="MAGATOM">     0</i>
   <v name="MAGDIPOL">      0.00000000      0.00000000      0.00000000</v>
   <v name="AVECCONST">      0.00000000      0.00000000      0.00000000</v>
  </separator>
  <separator name="response functions" >
   <i type="logical" name="LALL_IN_ONE"> F  </i>
   <i type="int" name="IALL_IN_ONE">    -1</i>
   <i type="int" name="NBANDS_WAVE">    -1</i>
   <i type="logical" name="LFINITE_TEMPERATURE"> F  </i>
   <i type="logical" name="LADDER"> F  </i>
   <i type="logical" name="LRPAFORCE"> F  </i>
   <i type="logical" name="LFXC"> F  </i>
   <i type="logical" name="LHARTREE"> T  </i>
   <i type="int" name="IBSE">     0</i>
   <v type="int" name="KPOINT">    -1     0     0     0</v>
   <i type="logical" name="LTCTC"> F  </i>
   <i type="logical" name="LTCTE"> F  </i>
   <i type="logical" name="LTETE"> F  </i>
   <i type="logical" name="LTRIPLET"> F  </i>
   <i type="logical" name="LFXCEPS"> F  </i>
   <i type="logical" name="LFXHEG"> F  </i>
   <i type="int" name="NATURALO">     2</i>
   <i type="logical" name="LHOLEGF"> F  </i>
   <i type="logical" name="L2ORDER"> F  </i>
   <i type="logical" name="LDMP1"> F  </i>
   <i type="logical" name="LMP2LT"> F  </i>
   <i type="logical" name="LSMP2LT"> F  </i>
   <i type="logical" name="LGWLF"> F  </i>
   <i name="ENCUTGW">     -1.60000002</i>
   <i name="ENCUTGWSOFT">     -1.60000002</i>
   <i name="ENCUTLF">     -1.00000000</i>
   <i type="logical" name="ESF_SPLINES"> F  </i>
   <i name="ESF_CONV">      0.01000000</i>
   <i type="int" name="ESF_NINTER">    15</i>
   <i type="int" name="LMAXMP2">    -1</i>
   <i name="SCISSOR">      0.00000000</i>
   <i type="int" name="NOMEGA">     0</i>
   <i type="int" name="NOMEGAR">     0</i>
   <i type="int" name="NBANDSGW">    -1</i>
   <i type="int" name="NBANDSO">    -1</i>
   <i type="int" name="NBANDSV">    -1</i>
   <i type="int" name="NELMGW">     1</i>
   <i type="int" name="NELMHF">     1</i>
   <i type="int" name="DIM">     3</i>
   <i type="int" name="IESPILON">     4</i>
   <i type="int" name="ANTIRES">     0</i>
   <i name="OMEGAMAX">    -30.00000000</i>
   <i name="OMEGAMIN">    -30.00000000</i>
   <i name="OMEGATL">   -200.00000000</i>
   <i type="int" name="OMEGAGRID">     0</i>
   <i name="CSHIFT">     -0.10000000</i>
   <i type="logical" name="LSELFENERGY"> F  </i>
   <i type="logical" name="LSPECTRAL"> F  </i>
   <i type="logical" name="LSPECTRALGW"> F  </i>
   <i type="logical" name="LSINGLES"> F  </i>
   <i type="logical" name="LFERMIGW"> F  </i>
   <i type="logical" name="ODDONLYGW"> F  </i>
   <i type="logical" name="EVENONLYGW"> F  </i>
   <i type="int" name="NKREDLFX">     1</i>
   <i type="int" name="NKREDLFY">     1</i>
   <i type="int" name="NKREDLFZ">     1</i>
   <i type="int" name="MAXMEM">  2800</i>
   <i type="int" name="TELESCOPE">     0</i>
   <i type="int" name="NTAUPAR">    -1</i>
   <i type="int" name="NOMEGAPAR">    -1</i>
   <i name="DAMP_NEWTON">      0.80000001</i>
   <i name="LAMBDA">      1.00000000</i>
  </separator>
  <separator name="External order field" >
   <i name="OFIELD_KAPPA">      0.00000000</i>
   <v name="OFIELD_K">      0.00000000      0.00000000      0.00000000</v>
   <i name="OFIELD_Q6_NEAR">      0.00000000</i>
   <i name="OFIELD_Q6_FAR">      0.00000000</i>
   <i name="OFIELD_A">      0.00000000</i>
  </separator>
  <separator name="optional k-points parameters" >
   <i type="int" name="KPOINTS_OPT_MODE">     1</i>
   <i type="logical" name="LKPOINTS_OPT"> T  </i>
  </separator>
 </parameters>
 <atominfo>
  <atoms>       4 </atoms>
  <types>       1 </types>
  <array name="atoms" >
   <dimension dim="1">ion</dimension>
   <field type="string">element</field>
   <field type="int">atomtype</field>
   <set>
    <rc><c>Cu</c><c>   1</c></rc>
    <rc><c>Cu</c><c>   1</c></rc>
    <rc><c>Cu</c><c>   1</c></rc>
    <rc><c>Cu</c><c>   1</c></rc>
   </set>
  </array>
  <array name="atomtypes" >
   <dimension dim="1">type</dimension>
   <field type="int">atomspertype</field>
   <field type="string">element</field>
   <field>mass</field>
   <field>valence</field>
   <field type="string">pseudopotential</field>
   <set>
    <rc><c>   4</c><c>Cu</c><c>     63.54600000</c><c>     11.00000000</c><c>PAW_PBE Cu 22Jun2005                    </c></rc>
   </set>
  </array>
 </atominfo>
 <structure name="initialpos" >
  <crystal>
   <varray name="basis" >
    <v>       3.63689000       0.00000000       0.00000000 </v>
    <v>       0.00000000       3.63689000       0.00000000 </v>
    <v>       0.00000000       0.00000000       3.63689000 </v>
   </varray>
   <i name="volume">     48.10503082 </i>
   <varray name="rec_basis" >
    <v>       0.27496020      -0.00000000       0.00000000 </v>
    <v>       0.00000000       0.27496020       0.00000000 </v>
    <v>      -0.00000000      -0.00000000       0.27496020 </v>
   </varray>
  </crystal>
  <varray name="positions" >
   <v>       0.00000000       0.00000000       0.00000000 </v>
   <v>       0.00000000       0.50000000       0.50000000 </v>
   <v>       0.50000000       0.00000000       0.50000000 </v>
   <v>       0.50000000       0.50000000       0.00000000 </v>
  </varray>
 </structure>
 <calculation>
  <scstep>
   <time name="dav">    0.26    0.26</time>
   <time name="total">    0.27    0.27</time>
   <energy>
    <i name="alphaZ">    243.24376042 </i>
    <i name="ewald">  -4393.06423324 </i>
    <i name="hartreedc">  -1369.83480182 </i>
    <i name="XCdc">    178.58716844 </i>
    <i name="pawpsdc">   5243.40230511 </i>
    <i name="pawaedc">  -5674.50611115 </i>
    <i name="eentropy">     -0.00266983 </i>
    <i name="bandstr">    193.44328919 </i>
    <i name="atom">   5563.81121641 </i>
    <i name="e_fr_energy">    -14.92007648 </i>
    <i name="e_wo_entrp">    -14.91740664 </i>
    <i name="e_0_energy">    -14.91874156 </i>
   </energy>
  </scstep>
  <scstep>
   <time name="dav">    0.27    0.27</time>
   <time name="total">    0.28    0.28</time>
   <energy>
    <i name="alphaZ">    243.24376042 </i>
    <i name="ewald">  -4393.06423324 </i>
    <i name="hartreedc">  -1369.69277122 </i>
    <i name="XCdc">    178.57997505 </i>
    <i name="pawpsdc">   5243.28320033 </i>
    <i name="pawaedc">  -5674.33571679 </i>
    <i name="eentropy">     -0.00266866 </i>
    <i name="bandstr">    193.25716567 </i>
    <i name="atom">   5563.81121641 </i>
    <i name="e_fr_energy">    -14.92007203 </i>
    <i name="e_wo_entrp">    -14.91740337 </i>
    <i name="e_0_energy">    -14.91873770 </i>
   </energy>
  </scstep>
  <structure>
   <crystal>
    <varray name="basis" >
     <v>       3.63689000       0.00000000       0.00000000 </v>
     <v>       0.00000000       3.63689000       0.00000000 </v>
     <v>       0.00000000       0.00000000       3.63689000 </v>
    </varray>
    <i name="volume">     48.10503082 </i>
    <varray name="rec_basis" >
     <v>       0.27496020      -0.00000000       0.00000000 </v>
     <v>       0.00000000       0.27496020       0.00000000 </v>
     <v>      -0.00000000      -0.00000000       0.27496020 </v>
    </varray>
   </crystal>
   <varray name="positions" >
    <v>       0.00000000       0.00000000       0.00000000 </v>
    <v>       0.00000000       0.50000000       0.50000000 </v>
    <v>       0.50000000       0.00000000       0.50000000 </v>
    <v>       0.50000000       0.50000000       0.00000000 </v>
   </varray>
  </structure>
  <varray name="forces" >
   <v>       0.00000000      -0.00000000       0.00000000 </v>
   <v>      -0.00000000      -0.00000000      -0.00000000 </v>
   <v>      -0.00000000       0.00000000      -0.00000000 </v>
   <v>       0.00000000       0.00000000       0.00000000 </v>
  </varray>
  <varray name="stress" >
   <v>       5.76740708       0.00000000       0.00000000 </v>
   <v>       0.00000000       5.76740708       0.00000000 </v>
   <v>      -0.00000000       0.00000000       5.76740708 </v>
  </varray>
  <energy>
   <i name="e_fr_energy">    -14.92007203 </i>
   <i name="e_wo_entrp">    -14.91740337 </i>
   <i name="e_0_energy">    -14.91873770 </i>
  </energy>
  <dos comment="kpoints_opt">
   <i name="efermi">      7.19126421 </i>
   <total>
    <array>
     <dimension dim="1">gridpoints</dimension>
     <dimension dim="2">spin</dimension>
     <field>energy</field>
     <field>total</field>
     <field>integrated</field>
     <set>
      <set comment="spin 1">
       <r>    -4.1044     0.0000     0.0000 </r>
       <r>    -3.9392     0.0000     0.0000 </r>
       <r>    -3.7741     0.0000     0.0000 </r>
       <r>    -3.6089     0.0000     0.0000 </r>
       <r>    -3.4438     0.0000     0.0000 </r>
       <r>    -3.2786     0.0000     0.0000 </r>
       <r>    -3.1135     0.0000     0.0000 </r>
       <r>    -2.9483     0.0000     0.0000 </r>
       <r>    -2.7832     0.0000     0.0000 </r>
       <r>    -2.6180     0.0000     0.0000 </r>
       <r>    -2.4528     0.0000     0.0000 </r>
       <r>    -2.2877     0.0000     0.0000 </r>
       <r>    -2.1225     0.0000     0.0000 </r>
       <r>    -1.9574     0.0005     0.0001 </r>
       <r>    -1.7922     0.7388     0.1221 </r>
       <r>    -1.6271     0.6964     0.2371 </r>
       <r>    -1.4619     0.4357     0.3091 </r>
       <r>    -1.2968     0.3521     0.3672 </r>
       <r>    -1.1316     0.2993     0.4166 </r>
       <r>    -0.9665     0.2771     0.4624 </r>
       <r>    -0.8013     0.2433     0.5026 </r>
       <r>    -0.6361     0.2294     0.5405 </r>
       <r>    -0.4710     0.2293     0.5784 </r>
       <r>    -0.3058     0.2079     0.6127 </r>
       <r>    -0.1407     0.2105     0.6475 </r>
       <r>     0.0245     0.1874     0.6784 </r>
       <r>     0.1896     0.1818     0.7084 </r>
       <r>     0.3548     0.1893     0.7397 </r>
       <r>     0.5199     0.1822     0.7698 </r>
       <r>     0.6851     0.1673     0.7974 </r>
       <r>     0.8502     0.1600     0.8238 </r>
       <r>     1.0154     0.1627     0.8507 </r>
       <r>     1.1806     0.1710     0.8790 </r>
       <r>     1.3457     0.1779     0.9083 </r>
       <r>     1.5109     0.1835     0.9386 </r>
       <r>     1.6760     0.8289     1.0755 </r>
       <r>     1.8412     0.9940     1.2397 </r>
       <r>     2.0063     0.8647     1.3825 </r>
       <r>     2.1715     0.8460     1.5222 </r>
       <r>     2.3366     0.8173     1.6572 </r>
       <r>     2.5018     0.8517     1.7979 </r>
       <r>     2.6669     7.1494     2.9787 </r>
       <r>     2.8321    16.2866     5.6685 </r>
       <r>     2.9973     8.0324     6.9950 </r>
       <r>     3.1624     9.4318     8.5527 </r>
       <r>     3.3276     5.0477     9.3864 </r>
       <r>     3.4927     3.7816    10.0110 </r>
       <r>     3.6579     2.4731    10.4194 </r>
       <r>     3.8230     2.3925    10.8145 </r>
       <r>     3.9882    12.3967    12.8619 </r>
       <r>     4.1533    21.2034    16.3637 </r>
       <r>     4.3185    15.5848    18.9376 </r>
       <r>     4.4836    16.9060    21.7297 </r>
       <r>     4.6488    11.5964    23.6449 </r>
       <r>     4.8140    12.7494    25.7506 </r>
       <r>     4.9791    13.4258    27.9679 </r>
       <r>     5.1443     7.0824    29.1376 </r>
       <r>     5.3094    17.6985    32.0606 </r>
       <r>     5.4746    12.6046    34.1423 </r>
       <r>     5.6397    14.7353    36.5759 </r>
       <r>     5.8049    17.0430    39.3906 </r>
       <r>     5.9700    10.5204    41.1281 </r>
       <r>     6.1352     1.0590    41.3030 </r>
       <r>     6.3003     0.8867    41.4495 </r>
       <r>     6.4655     0.8271    41.5861 </r>
       <r>     6.6307     0.7549    41.7107 </r>
       <r>     6.7958     0.7178    41.8293 </r>
       <r>     6.9610     0.8847    41.9754 </r>
       <r>     7.1261     9.7134    43.5796 </r>
       <r>     7.2913     5.1986    44.4382 </r>
       <r>     7.4564     2.3875    44.8325 </r>
       <r>     7.6216     1.6790    45.1098 </r>
       <r>     7.7867     1.5098    45.3591 </r>
       <r>     7.9519     1.2969    45.5733 </r>
       <r>     8.1170     1.2931    45.7869 </r>
       <r>     8.2822     1.2218    45.9887 </r>
       <r>     8.4474     1.1226    46.1741 </r>
       <r>     8.6125     1.2686    46.3836 </r>
       <r>     8.7777     1.4444    46.6221 </r>
       <r>     8.9428     2.7818    47.0816 </r>
       <r>     9.1080     0.9382    47.2365 </r>
       <r>     9.2731     0.4057    47.3035 </r>
       <r>     9.4383     0.3590    47.3628 </r>
       <r>     9.6034     0.3191    47.4155 </r>
       <r>     9.7686     0.3731    47.4771 </r>
       <r>     9.9337     0.2524    47.5188 </r>
       <r>    10.0989     0.3575    47.5779 </r>
       <r>    10.2641     0.2715    47.6227 </r>
       <r>    10.4292     0.3100    47.6739 </r>
       <r>    10.5944     0.3578    47.7330 </r>
       <r>    10.7595     0.3602    47.7925 </r>
       <r>    10.9247     0.3685    47.8533 </r>
       <r>    11.0898     0.0846    47.8673 </r>
       <r>    11.2550     0.1559    47.8930 </r>
       <r>    11.4201     0.3963    47.9585 </r>
       <r>    11.5853     0.5761    48.0536 </r>
       <r>    11.7504     0.3718    48.1150 </r>
       <r>    11.9156     0.4246    48.1852 </r>
       <r>    12.0808     0.6247    48.2883 </r>
       <r>    12.2459     0.4501    48.3627 </r>
       <r>    12.4111     0.4456    48.4363 </r>
       <r>    12.5762     0.3593    48.4956 </r>
       <r>    12.7414     0.4212    48.5652 </r>
       <r>    12.9065     0.3780    48.6276 </r>
       <r>    13.0717     0.4076    48.6949 </r>
       <r>    13.2368     0.7312    48.8157 </r>
       <r>    13.4020     1.4256    49.0511 </r>
       <r>    13.5671     1.1720    49.2447 </r>
       <r>    13.7323     1.1265    49.4307 </r>
       <r>    13.8975     1.0022    49.5963 </r>
       <r>    14.0626     0.9284    49.7496 </r>
       <r>    14.2278     0.8945    49.8973 </r>
       <r>    14.3929     2.3068    50.2783 </r>
       <r>    14.5581     2.7926    50.7395 </r>
       <r>    14.7232     1.7448    51.0276 </r>
       <r>    14.8884     1.2465    51.2335 </r>
       <r>    15.0535     1.7030    51.5148 </r>
       <r>    15.2187     1.3505    51.7378 </r>
       <r>    15.3838     1.0936    51.9184 </r>
       <r>    15.5490     1.4550    52.1587 </r>
       <r>    15.7142     1.1419    52.3473 </r>
       <r>    15.8793     1.2390    52.5519 </r>
       <r>    16.0445     1.7111    52.8345 </r>
       <r>    16.2096     1.6916    53.1139 </r>
       <r>    16.3748     1.6869    53.3925 </r>
       <r>    16.5399     1.2824    53.6043 </r>
       <r>    16.7051     1.7146    53.8875 </r>
       <r>    16.8702     1.4652    54.1294 </r>
       <r>    17.0354     3.0801    54.6381 </r>
       <r>    17.2005     1.7527    54.9276 </r>
       <r>    17.3657     1.1104    55.1110 </r>
       <r>    17.5309     0.9662    55.2706 </r>
       <r>    17.6960     0.9786    55.4322 </r>
       <r>    17.8612     0.7475    55.5556 </r>
       <r>    18.0263     1.1586    55.7470 </r>
       <r>    18.1915     3.1084    56.2604 </r>
       <r>    18.3566     2.6973    56.7058 </r>
       <r>    18.5218     2.2035    57.0697 </r>
       <r>    18.6869     1.8894    57.3818 </r>
       <r>    18.8521     1.9719    57.7075 </r>
       <r>    19.0172     1.4692    57.9501 </r>
       <r>    19.1824     1.5849    58.2119 </r>
       <r>    19.3476     1.7496    58.5008 </r>
       <r>    19.5127     1.5626    58.7589 </r>
       <r>    19.6779     1.8428    59.0632 </r>
       <r>    19.8430     1.5445    59.3183 </r>
       <r>    20.0082     1.9405    59.6388 </r>
       <r>    20.1733     1.9257    59.9568 </r>
       <r>    20.3385     4.5941    60.7156 </r>
       <r>    20.5036     3.0779    61.2239 </r>
       <r>    20.6688     1.8993    61.5376 </r>
       <r>    20.8339     1.5631    61.7957 </r>
       <r>    20.9991     1.5944    62.0591 </r>
       <r>    21.1643     1.3013    62.2740 </r>
       <r>    21.3294     1.3915    62.5038 </r>
       <r>    21.4946     1.3128    62.7206 </r>
       <r>    21.6597     1.1617    62.9125 </r>
       <r>    21.8249     1.0796    63.0908 </r>
       <r>    21.9900     1.1661    63.2834 </r>
       <r>    22.1552     0.9864    63.4463 </r>
       <r>    22.3203     1.0775    63.6242 </r>
       <r>    22.4855     1.1004    63.8060 </r>
       <r>    22.6506     0.8101    63.9398 </r>
       <r>    22.8158     1.0455    64.1124 </r>
       <r>    22.9810     0.9508    64.2694 </r>
       <r>    23.1461     0.9170    64.4209 </r>
       <r>    23.3113     0.9230    64.5733 </r>
       <r>    23.4764     1.1042    64.7557 </r>
       <r>    23.6416     0.8489    64.8959 </r>
       <r>    23.8067     0.6809    65.0084 </r>
       <r>    23.9719     0.5073    65.0921 </r>
       <r>    24.1370     0.7830    65.2215 </r>
       <r>    24.3022     1.2461    65.4273 </r>
       <r>    24.4673     0.8904    65.5743 </r>
       <r>    24.6325     0.9993    65.7393 </r>
       <r>    24.7977     1.6835    66.0174 </r>
       <r>    24.9628     2.1515    66.3727 </r>
       <r>    25.1280     1.4233    66.6078 </r>
       <r>    25.2931     1.4766    66.8517 </r>
       <r>    25.4583     1.7076    67.1337 </r>
       <r>    25.6234     1.9719    67.4593 </r>
       <r>    25.7886     2.1101    67.8078 </r>
       <r>    25.9537     1.9360    68.1276 </r>
       <r>    26.1189     1.9282    68.4460 </r>
       <r>    26.2840     2.1134    68.7951 </r>
       <r>    26.4492     1.7504    69.0841 </r>
       <r>    26.6144     1.7664    69.3759 </r>
       <r>    26.7795     1.6808    69.6535 </r>
       <r>    26.9447     1.6073    69.9189 </r>
       <r>    27.1098     1.5032    70.1672 </r>
       <r>    27.2750     1.7761    70.4605 </r>
       <r>    27.4401     2.9780    70.9523 </r>
       <r>    27.6053     3.4641    71.5244 </r>
       <r>    27.7704     2.7067    71.9715 </r>
       <r>    27.9356     2.4722    72.3797 </r>
       <r>    28.1007     1.8736    72.6892 </r>
       <r>    28.2659     1.9205    73.0064 </r>
       <r>    28.4311     1.7501    73.2954 </r>
       <r>    28.5962     1.5583    73.5528 </r>
       <r>    28.7614     1.7570    73.8429 </r>
       <r>    28.9265     2.7884    74.3034 </r>
       <r>    29.0917     2.4520    74.7084 </r>
       <r>    29.2568     2.5400    75.1279 </r>
       <r>    29.4220     2.3005    75.5078 </r>
       <r>    29.5871     2.5640    75.9313 </r>
       <r>    29.7523     2.8615    76.4039 </r>
       <r>    29.9174     3.9375    77.0542 </r>
       <r>    30.0826     2.1640    77.4116 </r>
       <r>    30.2478     1.9914    77.7405 </r>
       <r>    30.4129     1.6231    78.0086 </r>
       <r>    30.5781     2.1209    78.3588 </r>
       <r>    30.7432     2.7750    78.8171 </r>
       <r>    30.9084     1.6725    79.0934 </r>
       <r>    31.0735     0.7271    79.2135 </r>
       <r>    31.2387     0.7595    79.3389 </r>
       <r>    31.4038     1.1955    79.5363 </r>
       <r>    31.5690     2.0334    79.8722 </r>
       <r>    31.7341     0.9987    80.0371 </r>
       <r>    31.8993     1.0774    80.2150 </r>
       <r>    32.0645     0.9171    80.3665 </r>
       <r>    32.2296     0.8576    80.5081 </r>
       <r>    32.3948     2.4362    80.9105 </r>
       <r>    32.5599     1.4506    81.1500 </r>
       <r>    32.7251     1.0929    81.3305 </r>
       <r>    32.8902     1.7379    81.6176 </r>
       <r>    33.0554     1.0944    81.7983 </r>
       <r>    33.2205     1.3123    82.0150 </r>
       <r>    33.3857     0.8453    82.1546 </r>
       <r>    33.5508     0.6536    82.2626 </r>
       <r>    33.7160     0.9201    82.4145 </r>
       <r>    33.8812     0.8683    82.5579 </r>
       <r>    34.0463     1.0873    82.7375 </r>
       <r>    34.2115     2.4503    83.1422 </r>
       <r>    34.3766     2.4139    83.5408 </r>
       <r>    34.5418     2.1693    83.8991 </r>
       <r>    34.7069     2.2857    84.2766 </r>
       <r>    34.8721     4.0424    84.9442 </r>
       <r>    35.0372     3.1934    85.4716 </r>
       <r>    35.2024     2.9855    85.9647 </r>
       <r>    35.3675     2.6043    86.3948 </r>
       <r>    35.5327     2.0238    86.7290 </r>
       <r>    35.6979     1.7346    87.0155 </r>
       <r>    35.8630     2.1885    87.3769 </r>
       <r>    36.0282     1.5657    87.6355 </r>
       <r>    36.1933     1.7348    87.9220 </r>
       <r>    36.3585     1.0965    88.1031 </r>
       <r>    36.5236     1.6105    88.3691 </r>
       <r>    36.6888     1.1269    88.5552 </r>
       <r>    36.8539     1.5041    88.8036 </r>
       <r>    37.0191     1.3199    89.0216 </r>
       <r>    37.1842     1.8775    89.3317 </r>
       <r>    37.3494     2.9600    89.8206 </r>
       <r>    37.5146     2.1885    90.1820 </r>
       <r>    37.6797     1.8271    90.4838 </r>
       <r>    37.8449     1.9103    90.7993 </r>
       <r>    38.0100     2.8650    91.2724 </r>
       <r>    38.1752     3.6511    91.8754 </r>
       <r>    38.3403     3.2803    92.4172 </r>
       <r>    38.5055     2.6262    92.8509 </r>
       <r>    38.6706     2.9346    93.3356 </r>
       <r>    38.8358     2.4595    93.7418 </r>
       <r>    39.0009     2.1683    94.0999 </r>
       <r>    39.1661     2.8508    94.5707 </r>
       <r>    39.3313     1.0237    94.7398 </r>
       <r>    39.4964     0.3827    94.8030 </r>
       <r>    39.6616     0.7050    94.9194 </r>
       <r>    39.8267     0.6045    95.0192 </r>
       <r>    39.9919     0.2947    95.0679 </r>
       <r>    40.1570     0.5595    95.1603 </r>
       <r>    40.3222     0.6730    95.2715 </r>
       <r>    40.4873     0.5200    95.3573 </r>
       <r>    40.6525     1.0790    95.5355 </r>
       <r>    40.8176     0.7241    95.6551 </r>
       <r>    40.9828     0.3679    95.7159 </r>
       <r>    41.1480     0.2460    95.7565 </r>
       <r>    41.3131     0.1339    95.7786 </r>
       <r>    41.4783     0.0708    95.7903 </r>
       <r>    41.6434     0.2224    95.8271 </r>
       <r>    41.8086     0.0702    95.8387 </r>
       <r>    41.9737     0.0856    95.8528 </r>
       <r>    42.1389     0.1498    95.8775 </r>
       <r>    42.3040     0.0051    95.8784 </r>
       <r>    42.4692     0.1390    95.9013 </r>
       <r>    42.6343     0.0322    95.9067 </r>
       <r>    42.7995     0.0954    95.9224 </r>
       <r>    42.9647     0.1214    95.9425 </r>
       <r>    43.1298     0.1310    95.9641 </r>
       <r>    43.2950     0.2171    96.0000 </r>
       <r>    43.4601     0.0002    96.0000 </r>
       <r>    43.6253     0.0000    96.0000 </r>
       <r>    43.7904     0.0000    96.0000 </r>
       <r>    43.9556     0.0000    96.0000 </r>
       <r>    44.1207     0.0000    96.0000 </r>
       <r>    44.2859     0.0000    96.0000 </r>
       <r>    44.4510     0.0000    96.0000 </r>
       <r>    44.6162     0.0000    96.0000 </r>
       <r>    44.7814     0.0000    96.0000 </r>
       <r>    44.9465     0.0000    96.0000 </r>
       <r>    45.1117     0.0000    96.0000 </r>
       <r>    45.2768     0.0000    96.0000 </r>
       <r>    45.4420     0.0000    96.0000 </r>
      </set>
     </set>
    </array>
   </total>
  </dos>
  <eigenvalues_kpoints_opt comment="kpoints_opt">
   <kpoints>
    <varray name="kpointlist" >
     <v>       0.00000000       0.00000000       0.00000000 </v>
     <v>       0.01041667       0.00000000       0.01041667 </v>
     <v>       0.02083333       0.00000000       0.02083333 </v>
     <v>       0.03125000       0.00000000       0.03125000 </v>
     <v>       0.04166667       0.00000000       0.04166667 </v>
     <v>       0.05208333       0.00000000       0.05208333 </v>
     <v>       0.06250000       0.00000000       0.06250000 </v>
     <v>       0.07291667       0.00000000       0.07291667 </v>
     <v>       0.08333333       0.00000000       0.08333333 </v>
     <v>       0.09375000       0.00000000       0.09375000 </v>
     <v>       0.10416667       0.00000000       0.10416667 </v>
     <v>       0.11458333       0.00000000       0.11458333 </v>
     <v>       0.12500000       0.00000000       0.12500000 </v>
     <v>       0.13541667       0.00000000       0.13541667 </v>
     <v>       0.14583333       0.00000000       0.14583333 </v>
     <v>       0.15625000       0.00000000       0.15625000 </v>
     <v>       0.16666667       0.00000000       0.16666667 </v>
     <v>       0.17708333       0.00000000       0.17708333 </v>
     <v>       0.18750000       0.00000000       0.18750000 </v>
     <v>       0.19791667       0.00000000       0.19791667 </v>
     <v>       0.20833333       0.00000000       0.20833333 </v>
     <v>       0.21875000       0.00000000       0.21875000 </v>
     <v>       0.22916667       0.00000000       0.22916667 </v>
     <v>       0.23958333       0.00000000       0.23958333 </v>
     <v>       0.25000000       0.00000000       0.25000000 </v>
     <v>       0.26041667       0.00000000       0.26041667 </v>
     <v>       0.27083333       0.00000000       0.27083333 </v>
     <v>       0.28125000       0.00000000       0.28125000 </v>
     <v>       0.29166667       0.00000000       0.29166667 </v>
     <v>       0.30208333       0.00000000       0.30208333 </v>
     <v>       0.31250000       0.00000000       0.31250000 </v>
     <v>       0.32291667       0.00000000       0.32291667 </v>
     <v>       0.33333333       0.00000000       0.33333333 </v>
     <v>       0.34375000       0.00000000       0.34375000 </v>
     <v>       0.35416667       0.00000000       0.35416667 </v>
     <v>       0.36458333       0.00000000       0.36458333 </v>
     <v>       0.37500000       0.00000000       0.37500000 </v>
     <v>       0.38541667       0.00000000       0.38541667 </v>
     <v>       0.39583333       0.00000000       0.39583333 </v>
     <v>       0.40625000       0.00000000       0.40625000 </v>
     <v>       0.41666667       0.00000000       0.41666667 </v>
     <v>       0.42708333       0.00000000       0.42708333 </v>
     <v>       0.43750000       0.00000000       0.43750000 </v>
     <v>       0.44791667       0.00000000       0.44791667 </v>
     <v>       0.45833333       0.00000000       0.45833333 </v>
     <v>       0.46875000       0.00000000       0.46875000 </v>
     <v>       0.47916667       0.00000000       0.47916667 </v>
     <v>       0.48958333       0.00000000       0.48958333 </v>
     <v>       0.50000000       0.00000000       0.50000000 </v>
     <v>       0.50000000       0.00000000       0.50000000 </v>
     <v>       0.50260417       0.00520833       0.50260417 </v>
     <v>       0.50520833       0.01041667       0.50520833 </v>
     <v>       0.50781250       0.01562500       0.50781250 </v>
     <v>       0.51041667       0.02083333       0.51041667 </v>
     <v>       0.51302083       0.02604167       0.51302083 </v>
     <v>       0.51562500       0.03125000       0.51562500 </v>
     <v>       0.51822917       0.03645833       0.51822917 </v>
     <v>       0.52083333       0.04166667       0.52083333 </v>
     <v>       0.52343750       0.04687500       0.52343750 </v>
     <v>       0.52604167       0.05208333       0.52604167 </v>
     <v>       0.52864583       0.05729167       0.52864583 </v>
     <v>       0.53125000       0.06250000       0.53125000 </v>
     <v>       0.53385417       0.06770833       0.53385417 </v>
     <v>       0.53645833       0.07291667       0.53645833 </v>
     <v>       0.53906250       0.07812500       0.53906250 </v>
     <v>       0.54166667       0.08333333       0.54166667 </v>
     <v>       0.54427083       0.08854167       0.54427083 </v>
     <v>       0.54687500       0.09375000       0.54687500 </v>
     <v>       0.54947917       0.09895833       0.54947917 </v>
     <v>       0.55208333       0.10416667       0.55208333 </v>
     <v>       0.55468750       0.10937500       0.55468750 </v>
     <v>       0.55729167       0.11458333       0.55729167 </v>
     <v>       0.55989583       0.11979167       0.55989583 </v>
     <v>       0.56250000       0.12500000       0.56250000 </v>
     <v>       0.56510417       0.13020833       0.56510417 </v>
     <v>       0.56770833       0.13541667       0.56770833 </v>
     <v>       0.57031250       0.14062500       0.57031250 </v>
     <v>       0.57291667       0.14583333       0.57291667 </v>
     <v>       0.57552083       0.15104167       0.57552083 </v>
     <v>       0.57812500       0.15625000       0.57812500 </v>
     <v>       0.58072917       0.16145833       0.58072917 </v>
     <v>       0.58333333       0.16666667       0.58333333 </v>
     <v>       0.58593750       0.17187500       0.58593750 </v>
     <v>       0.58854167       0.17708333       0.58854167 </v>
     <v>       0.59114583       0.18229167       0.59114583 </v>
     <v>       0.59375000       0.18750000       0.59375000 </v>
     <v>       0.59635417       0.19270833       0.59635417 </v>
     <v>       0.59895833       0.19791667       0.59895833 </v>
     <v>       0.60156250       0.20312500       0.60156250 </v>
     <v>       0.60416667       0.20833333       0.60416667 </v>
     <v>       0.60677083       0.21354167       0.60677083 </v>
     <v>       0.60937500       0.21875000       0.60937500 </v>
     <v>       0.61197917       0.22395833       0.61197917 </v>
     <v>       0.61458333       0.22916667       0.61458333 </v>
     <v>       0.61718750       0.23437500       0.61718750 </v>
     <v>       0.61979167       0.23958333       0.61979167 </v>
     <v>       0.62239583       0.24479167       0.62239583 </v>
     <v>       0.62500000       0.25000000       0.62500000 </v>
     <v>       0.62500000       0.25000000       0.62500000 </v>
     <v>       0.61197917       0.24479167       0.61197917 </v>
     <v>       0.59895833       0.23958333       0.59895833 </v>
     <v>       0.58593750       0.23437500       0.58593750 </v>
     <v>       0.57291667       0.22916667       0.57291667 </v>
     <v>       0.55989583       0.22395833       0.55989583 </v>
     <v>       0.54687500       0.21875000       0.54687500 </v>
     <v>       0.53385417       0.21354167       0.53385417 </v>
     <v>       0.52083333       0.20833333       0.52083333 </v>
     <v>       0.50781250       0.20312500       0.50781250 </v>
     <v>       0.49479167       0.19791667       0.49479167 </v>
     <v>       0.48177083       0.19270833       0.48177083 </v>
     <v>       0.46875000       0.18750000       0.46875000 </v>
     <v>       0.45572917       0.18229167       0.45572917 </v>
     <v>       0.44270833       0.17708333       0.44270833 </v>
     <v>       0.42968750       0.17187500       0.42968750 </v>
     <v>       0.41666667       0.16666667       0.41666667 </v>
     <v>       0.40364583       0.16145833       0.40364583 </v>
     <v>       0.39062500       0.15625000       0.39062500 </v>
     <v>       0.37760417       0.15104167       0.37760417 </v>
     <v>       0.36458333       0.14583333       0.36458333 </v>
     <v>       0.35156250       0.14062500       0.35156250 </v>
     <v>       0.33854167       0.13541667       0.33854167 </v>
     <v>       0.32552083       0.13020833       0.32552083 </v>
     <v>       0.31250000       0.12500000       0.31250000 </v>
     <v>       0.29947917       0.11979167       0.29947917 </v>
     <v>       0.28645833       0.11458333       0.28645833 </v>
     <v>       0.27343750       0.10937500       0.27343750 </v>
     <v>       0.26041667       0.10416667       0.26041667 </v>
     <v>       0.24739583       0.09895833       0.24739583 </v>
     <v>       0.23437500       0.09375000       0.23437500 </v>
     <v>       0.22135417       0.08854167       0.22135417 </v>
     <v>       0.20833333       0.08333333       0.20833333 </v>
     <v>       0.19531250       0.07812500       0.19531250 </v>
     <v>       0.18229167       0.07291667       0.18229167 </v>
     <v>       0.16927083       0.06770833       0.16927083 </v>
     <v>       0.15625000       0.06250000       0.15625000 </v>
     <v>       0.14322917       0.05729167       0.14322917 </v>
     <v>       0.13020833       0.05208333       0.13020833 </v>
     <v>       0.11718750       0.04687500       0.11718750 </v>
     <v>       0.10416667       0.04166667       0.10416667 </v>
     <v>       0.09114583       0.03645833       0.09114583 </v>
     <v>       0.07812500       0.03125000       0.07812500 </v>
     <v>       0.06510417       0.02604167       0.06510417 </v>
     <v>       0.05208333       0.02083333       0.05208333 </v>
     <v>       0.03906250       0.01562500       0.03906250 </v>
     <v>       0.02604167       0.01041667       0.02604167 </v>
     <v>       0.01302083       0.00520833       0.01302083 </v>
     <v>      -0.00000000       0.00000000      -0.00000000 </v>
    </varray>
    <varray name="weights" >
     <v>       0.00680272 </v>
     <v>       0.00680272 </v>
     <v>       0.00680272 </v>
     <v>       0.00680272 </v>
     <v>       0.00680272 </v>
     <v>       0.00680272 </v>
     <v>       0.00680272 </v>
     <v>       0.00680272 </v>
     <v>       0.00680272 </v>
     <v>       0.00680272 </v>
     <v>       0.00680272 </v>
     <v>       0.00680272 </v>
     <v>       0.00680272 </v>
     <v>       0.00680272 </v>
     <v>       0.00680272 </v>
     <v>       0.00680272 </v>
     <v>       0.00680272 </v>
     <v>       0.00680272 </v>
     <v>       0.00680272 </v>
     <v>       0.00680272 </v>
     <v>       0.00680272 </v>
     <v>       0.00680272 </v>
     <v>       0.00680272 </v>
     <v>       0.00680272 </v>
     <v>       0.00680272 </v>
     <v>       0.00680272 </v>
     <v>       0.00680272 </v>
     <v>       0.00680272 </v>
     <v>       0.00680272 </v>
     <v>       0.00680272 </v>
     <v>       0.00680272 </v>
     <v>       0.00680272 </v>
     <v>       0.00680272 </v>
     <v>       0.00680272 </v>
     <v>       0.00680272 </v>
     <v>       0.00680272 </v>
     <v>       0.00680272 </v>
     <v>       0.00680272 </v>
     <v>       0.00680272 </v>
     <v>       0.00680272 </v>
     <v>       0.00680272 </v>
     <v>       0.00680272 </v>
     <v>       0.00680272 </v>
     <v>       0.00680272 </v>
     <v>       0.00680272 </v>
     <v>       0.00680272 </v>
     <v>       0.00680272 </v>
     <v>       0.00680272 </v>
     <v>       0.00680272 </v>
     <v>       0.00680272 </v>
     <v>       0.00680272 </v>
     <v>       0.00680272 </v>
     <v>       0.00680272 </v>
     <v>       0.00680272 </v>
     <v>       0.00680272 </v>
     <v>       0.00680272 </v>
     <v>       0.00680272 </v>
     <v>       0.00680272 </v>
     <v>       0.00680272 </v>
     <v>       0.00680272 </v>
     <v>       0.00680272 </v>
     <v>       0.00680272 </v>
     <v>       0.00680272 </v>
     <v>       0.00680272 </v>
     <v>       0.00680272 </v>
     <v>       0.00680272 </v>
     <v>       0.00680272 </v>
     <v>       0.00680272 </v>
     <v>       0.00680272 </v>
     <v>       0.00680272 </v>
     <v>       0.00680272 </v>
     <v>       0.00680272 </v>
     <v>       0.00680272 </v>
     <v>       0.00680272 </v>
     <v>       0.00680272 </v>
     <v>       0.00680272 </v>
     <v>       0.00680272 </v>
     <v>       0.00680272 </v>
     <v>       0.00680272 </v>
     <v>       0.00680272 </v>
     <v>       0.00680272 </v>
     <v>       0.00680272 </v>
     <v>       0.00680272 </v>
     <v>       0.00680272 </v>
     <v>       0.00680272 </v>
     <v>       0.00680272 </v>
     <v>       0.00680272 </v>
     <v>       0.00680272 </v>
     <v>       0.00680272 </v>
     <v>       0.00680272 </v>
     <v>       0.00680272 </v>
     <v>       0.00680272 </v>
     <v>       0.00680272 </v>
     <v>       0.00680272 </v>
     <v>       0.00680272 </v>
     <v>       0.00680272 </v>
     <v>       0.00680272 </v>
     <v>       0.00680272 </v>
     <v>       0.00680272 </v>
     <v>       0.00680272 </v>
     <v>       0.00680272 </v>
     <v>       0.00680272 </v>
     <v>       0.00680272 </v>
     <v>       0.00680272 </v>
     <v>       0.00680272 </v>
     <v>       0.00680272 </v>
     <v>       0.00680272 </v>
     <v>       0.00680272 </v>
     <v>       0.00680272 </v>
     <v>       0.00680272 </v>
     <v>       0.00680272 </v>
     <v>       0.00680272 </v>
     <v>       0.00680272 </v>
     <v>       0.00680272 </v>
     <v>       0.00680272 </v>
     <v>       0.00680272 </v>
     <v>       0.00680272 </v>
     <v>       0.00680272 </v>
     <v>       0.00680272 </v>
     <v>       0.00680272 </v>
     <v>       0.00680272 </v>
     <v>       0.00680272 </v>
     <v>       0.00680272 </v>
     <v>       0.00680272 </v>
     <v>       0.00680272 </v>
     <v>       0.00680272 </v>
     <v>       0.00680272 </v>
     <v>       0.00680272 </v>
     <v>       0.00680272 </v>
     <v>       0.00680272 </v>
     <v>       0.00680272 </v>
     <v>       0.00680272 </v>
     <v>       0.00680272 </v>
     <v>       0.00680272 </v>
     <v>       0.00680272 </v>
     <v>       0.00680272 </v>
     <v>       0.00680272 </v>
     <v>       0.00680272 </v>
     <v>       0.00680272 </v>
     <v>       0.00680272 </v>
     <v>       0.00680272 </v>
     <v>       0.00680272 </v>
     <v>       0.00680272 </v>
     <v>       0.00680272 </v>
     <v>       0.00680272 </v>
     <v>       0.00680272 </v>
     <v>       0.00680272 </v>
    </varray>
   </kpoints>
   <eigenvalues>
    <array>
     <dimension dim="1">band</dimension>
     <dimension dim="2">kpoint</dimension>
     <dimension dim="3">spin</dimension>
     <field>eigene</field>
     <set>
      <set comment="spin 1">
       <set comment="kpoint 1">
        <r>   -1.8522 </r>
        <r>    2.6017 </r>
        <r>    2.6017 </r>
        <r>    2.6017 </r>
        <r>    3.0483 </r>
        <r>    3.0483 </r>
        <r>    3.0483 </r>
        <r>    4.4051 </r>
        <r>    4.4051 </r>
        <r>    4.4051 </r>
        <r>    5.2098 </r>
        <r>    5.2098 </r>
        <r>    5.7443 </r>
        <r>    5.7443 </r>
        <r>    5.7443 </r>
        <r>    5.8957 </r>
        <r>    5.8957 </r>
        <r>    5.8957 </r>
        <r>    5.8957 </r>
        <r>    5.8957 </r>
        <r>    5.8957 </r>
        <r>    8.8741 </r>
        <r>    8.8741 </r>
        <r>    8.8741 </r>
        <r>   14.3562 </r>
        <r>   14.3562 </r>
        <r>   14.3562 </r>
        <r>   20.3033 </r>
        <r>   20.3033 </r>
        <r>   20.3033 </r>
        <r>   20.3033 </r>
        <r>   20.3033 </r>
        <r>   20.3033 </r>
        <r>   24.7579 </r>
        <r>   24.7579 </r>
        <r>   24.7579 </r>
        <r>   27.3252 </r>
        <r>   27.3252 </r>
        <r>   27.3252 </r>
        <r>   29.8139 </r>
        <r>   32.3142 </r>
        <r>   32.3142 </r>
        <r>   32.3142 </r>
        <r>   34.7956 </r>
        <r>   34.7956 </r>
        <r>   34.7956 </r>
        <r>   38.5576 </r>
        <r>   43.1901 </r>
       </set>
       <set comment="kpoint 2">
        <r>   -1.8496 </r>
        <r>    2.6023 </r>
        <r>    2.6023 </r>
        <r>    2.6029 </r>
        <r>    3.0490 </r>
        <r>    3.0490 </r>
        <r>    3.0490 </r>
        <r>    4.4044 </r>
        <r>    4.4055 </r>
        <r>    4.4057 </r>
        <r>    5.2093 </r>
        <r>    5.2098 </r>
        <r>    5.7434 </r>
        <r>    5.7437 </r>
        <r>    5.7437 </r>
        <r>    5.8912 </r>
        <r>    5.8927 </r>
        <r>    5.8927 </r>
        <r>    5.8952 </r>
        <r>    5.8952 </r>
        <r>    5.8953 </r>
        <r>    8.8685 </r>
        <r>    8.8685 </r>
        <r>    8.8813 </r>
        <r>   14.3571 </r>
        <r>   14.3684 </r>
        <r>   14.3684 </r>
        <r>   20.2677 </r>
        <r>   20.2953 </r>
        <r>   20.2953 </r>
        <r>   20.2991 </r>
        <r>   20.2991 </r>
        <r>   20.3071 </r>
        <r>   24.7700 </r>
        <r>   24.7700 </r>
        <r>   24.7807 </r>
        <r>   27.3346 </r>
        <r>   27.3346 </r>
        <r>   27.3432 </r>
        <r>   29.8034 </r>
        <r>   32.2609 </r>
        <r>   32.2765 </r>
        <r>   32.3179 </r>
        <r>   34.7969 </r>
        <r>   34.8346 </r>
        <r>   34.8493 </r>
        <r>   38.5680 </r>
        <r>   43.1282 </r>
       </set>
       <set comment="kpoint 3">
        <r>   -1.8418 </r>
        <r>    2.6041 </r>
        <r>    2.6041 </r>
        <r>    2.6065 </r>
        <r>    3.0510 </r>
        <r>    3.0510 </r>
        <r>    3.0510 </r>
        <r>    4.4026 </r>
        <r>    4.4069 </r>
        <r>    4.4075 </r>
        <r>    5.2079 </r>
        <r>    5.2099 </r>
        <r>    5.7406 </r>
        <r>    5.7419 </r>
        <r>    5.7419 </r>
        <r>    5.8776 </r>
        <r>    5.8838 </r>
        <r>    5.8838 </r>
        <r>    5.8934 </r>
        <r>    5.8934 </r>
        <r>    5.8943 </r>
        <r>    8.8521 </r>
        <r>    8.8521 </r>
        <r>    8.9026 </r>
        <r>   14.3600 </r>
        <r>   14.4047 </r>
        <r>   14.4047 </r>
        <r>   20.1639 </r>
        <r>   20.2715 </r>
        <r>   20.2715 </r>
        <r>   20.2866 </r>
        <r>   20.2866 </r>
        <r>   20.3184 </r>
        <r>   24.8060 </r>
        <r>   24.8060 </r>
        <r>   24.8453 </r>
        <r>   27.3629 </r>
        <r>   27.3629 </r>
        <r>   27.3978 </r>
        <r>   29.7709 </r>
        <r>   32.1116 </r>
        <r>   32.1748 </r>
        <r>   32.3290 </r>
        <r>   34.8009 </r>
        <r>   34.9403 </r>
        <r>   35.0003 </r>
        <r>   38.5998 </r>
        <r>   42.9384 </r>
       </set>
       <set comment="kpoint 4">
        <r>   -1.8287 </r>
        <r>    2.6071 </r>
        <r>    2.6071 </r>
        <r>    2.6126 </r>
        <r>    3.0544 </r>
        <r>    3.0544 </r>
        <r>    3.0546 </r>
        <r>    4.3996 </r>
        <r>    4.4091 </r>
        <r>    4.4105 </r>
        <r>    5.2057 </r>
        <r>    5.2101 </r>
        <r>    5.7362 </r>
        <r>    5.7386 </r>
        <r>    5.7386 </r>
        <r>    5.8558 </r>
        <r>    5.8692 </r>
        <r>    5.8692 </r>
        <r>    5.8908 </r>
        <r>    5.8908 </r>
        <r>    5.8926 </r>
        <r>    8.8253 </r>
        <r>    8.8253 </r>
        <r>    8.9379 </r>
        <r>   14.3648 </r>
        <r>   14.4646 </r>
        <r>   14.4646 </r>
        <r>   19.9999 </r>
        <r>   20.2328 </r>
        <r>   20.2328 </r>
        <r>   20.2660 </r>
        <r>   20.2660 </r>
        <r>   20.3371 </r>
        <r>   24.8652 </r>
        <r>   24.8652 </r>
        <r>   24.9420 </r>
        <r>   27.4097 </r>
        <r>   27.4097 </r>
        <r>   27.4908 </r>
        <r>   29.7135 </r>
        <r>   31.8896 </r>
        <r>   32.0345 </r>
        <r>   32.3475 </r>
        <r>   34.8075 </r>
        <r>   35.0872 </r>
        <r>   35.2258 </r>
        <r>   38.6546 </r>
        <r>   42.6727 </r>
       </set>
       <set comment="kpoint 5">
        <r>   -1.8105 </r>
        <r>    2.6112 </r>
        <r>    2.6112 </r>
        <r>    2.6211 </r>
        <r>    3.0592 </r>
        <r>    3.0592 </r>
        <r>    3.0596 </r>
        <r>    4.3953 </r>
        <r>    4.4123 </r>
        <r>    4.4147 </r>
        <r>    5.2026 </r>
        <r>    5.2104 </r>
        <r>    5.7299 </r>
        <r>    5.7338 </r>
        <r>    5.7338 </r>
        <r>    5.8261 </r>
        <r>    5.8493 </r>
        <r>    5.8493 </r>
        <r>    5.8871 </r>
        <r>    5.8871 </r>
        <r>    5.8903 </r>
        <r>    8.7890 </r>
        <r>    8.7890 </r>
        <r>    8.9863 </r>
        <r>   14.3715 </r>
        <r>   14.5473 </r>
        <r>   14.5473 </r>
        <r>   19.7864 </r>
        <r>   20.1802 </r>
        <r>   20.1802 </r>
        <r>   20.2378 </r>
        <r>   20.2378 </r>
        <r>   20.3634 </r>
        <r>   24.9463 </r>
        <r>   24.9463 </r>
        <r>   25.0580 </r>
        <r>   27.4747 </r>
        <r>   27.4747 </r>
        <r>   27.6246 </r>
        <r>   29.6271 </r>
        <r>   31.6175 </r>
        <r>   31.8817 </r>
        <r>   32.3734 </r>
        <r>   34.8168 </r>
        <r>   35.2493 </r>
        <r>   35.5037 </r>
        <r>   38.7347 </r>
        <r>   42.3588 </r>
       </set>
       <set comment="kpoint 6">
        <r>   -1.7870 </r>
        <r>    2.6166 </r>
        <r>    2.6166 </r>
        <r>    2.6319 </r>
        <r>    3.0655 </r>
        <r>    3.0655 </r>
        <r>    3.0661 </r>
        <r>    4.3899 </r>
        <r>    4.4163 </r>
        <r>    4.4200 </r>
        <r>    5.1986 </r>
        <r>    5.2109 </r>
        <r>    5.7220 </r>
        <r>    5.7270 </r>
        <r>    5.7270 </r>
        <r>    5.7894 </r>
        <r>    5.8245 </r>
        <r>    5.8245 </r>
        <r>    5.8823 </r>
        <r>    5.8823 </r>
        <r>    5.8872 </r>
        <r>    8.7444 </r>
        <r>    8.7444 </r>
        <r>    9.0472 </r>
        <r>   14.3802 </r>
        <r>   14.6515 </r>
        <r>   14.6515 </r>
        <r>   19.5338 </r>
        <r>   20.1152 </r>
        <r>   20.1152 </r>
        <r>   20.2022 </r>
        <r>   20.2022 </r>
        <r>   20.3970 </r>
        <r>   25.0481 </r>
        <r>   25.0481 </r>
        <r>   25.1810 </r>
        <r>   27.5574 </r>
        <r>   27.5574 </r>
        <r>   27.8010 </r>
        <r>   29.5074 </r>
        <r>   31.3123 </r>
        <r>   31.7371 </r>
        <r>   32.4067 </r>
        <r>   34.8288 </r>
        <r>   35.4059 </r>
        <r>   35.8175 </r>
        <r>   38.8423 </r>
        <r>   42.0172 </r>
       </set>
       <set comment="kpoint 7">
        <r>   -1.7584 </r>
        <r>    2.6232 </r>
        <r>    2.6232 </r>
        <r>    2.6450 </r>
        <r>    3.0732 </r>
        <r>    3.0732 </r>
        <r>    3.0738 </r>
        <r>    4.3834 </r>
        <r>    4.4213 </r>
        <r>    4.4263 </r>
        <r>    5.1937 </r>
        <r>    5.2115 </r>
        <r>    5.7123 </r>
        <r>    5.7166 </r>
        <r>    5.7166 </r>
        <r>    5.7463 </r>
        <r>    5.7965 </r>
        <r>    5.7965 </r>
        <r>    5.8766 </r>
        <r>    5.8766 </r>
        <r>    5.8835 </r>
        <r>    8.6926 </r>
        <r>    8.6926 </r>
        <r>    9.1198 </r>
        <r>   14.3908 </r>
        <r>   14.7760 </r>
        <r>   14.7760 </r>
        <r>   19.2514 </r>
        <r>   20.0396 </r>
        <r>   20.0396 </r>
        <r>   20.1601 </r>
        <r>   20.1601 </r>
        <r>   20.4381 </r>
        <r>   25.1688 </r>
        <r>   25.1688 </r>
        <r>   25.3010 </r>
        <r>   27.6571 </r>
        <r>   27.6571 </r>
        <r>   28.0205 </r>
        <r>   29.3515 </r>
        <r>   30.9852 </r>
        <r>   31.6145 </r>
        <r>   32.4473 </r>
        <r>   34.8434 </r>
        <r>   35.5423 </r>
        <r>   36.1561 </r>
        <r>   38.9788 </r>
        <r>   41.6591 </r>
       </set>
       <set comment="kpoint 8">
        <r>   -1.7247 </r>
        <r>    2.6309 </r>
        <r>    2.6309 </r>
        <r>    2.6604 </r>
        <r>    3.0822 </r>
        <r>    3.0822 </r>
        <r>    3.0830 </r>
        <r>    4.3757 </r>
        <r>    4.4271 </r>
        <r>    4.4337 </r>
        <r>    5.1880 </r>
        <r>    5.2123 </r>
        <r>    5.6979 </r>
        <r>    5.6996 </r>
        <r>    5.6996 </r>
        <r>    5.7011 </r>
        <r>    5.7685 </r>
        <r>    5.7685 </r>
        <r>    5.8697 </r>
        <r>    5.8697 </r>
        <r>    5.8791 </r>
        <r>    8.6350 </r>
        <r>    8.6350 </r>
        <r>    9.2030 </r>
        <r>   14.4035 </r>
        <r>   14.9193 </r>
        <r>   14.9193 </r>
        <r>   18.9467 </r>
        <r>   19.9547 </r>
        <r>   19.9547 </r>
        <r>   20.1119 </r>
        <r>   20.1119 </r>
        <r>   20.4865 </r>
        <r>   25.3069 </r>
        <r>   25.3069 </r>
        <r>   25.4121 </r>
        <r>   27.7731 </r>
        <r>   27.7731 </r>
        <r>   28.2816 </r>
        <r>   29.1595 </r>
        <r>   30.6437 </r>
        <r>   31.5208 </r>
        <r>   32.4951 </r>
        <r>   34.8607 </r>
        <r>   35.6492 </r>
        <r>   36.5123 </r>
        <r>   39.1432 </r>
        <r>   41.2914 </r>
       </set>
       <set comment="kpoint 9">
        <r>   -1.6858 </r>
        <r>    2.6397 </r>
        <r>    2.6397 </r>
        <r>    2.6779 </r>
        <r>    3.0927 </r>
        <r>    3.0927 </r>
        <r>    3.0935 </r>
        <r>    4.3669 </r>
        <r>    4.4338 </r>
        <r>    4.4417 </r>
        <r>    5.1815 </r>
        <r>    5.2133 </r>
        <r>    5.6451 </r>
        <r>    5.6710 </r>
        <r>    5.6710 </r>
        <r>    5.6882 </r>
        <r>    5.7455 </r>
        <r>    5.7455 </r>
        <r>    5.8619 </r>
        <r>    5.8619 </r>
        <r>    5.8741 </r>
        <r>    8.5728 </r>
        <r>    8.5728 </r>
        <r>    9.2961 </r>
        <r>   14.4181 </r>
        <r>   15.0801 </r>
        <r>   15.0801 </r>
        <r>   18.6255 </r>
        <r>   19.8624 </r>
        <r>   19.8624 </r>
        <r>   20.0583 </r>
        <r>   20.0583 </r>
        <r>   20.5422 </r>
        <r>   25.4608 </r>
        <r>   25.4608 </r>
        <r>   25.5117 </r>
        <r>   27.9047 </r>
        <r>   27.9047 </r>
        <r>   28.5813 </r>
        <r>   28.9345 </r>
        <r>   30.2925 </r>
        <r>   31.4574 </r>
        <r>   32.5503 </r>
        <r>   34.8807 </r>
        <r>   35.7214 </r>
        <r>   36.8812 </r>
        <r>   39.3317 </r>
        <r>   40.9182 </r>
       </set>
       <set comment="kpoint 10">
        <r>   -1.6418 </r>
        <r>    2.6495 </r>
        <r>    2.6495 </r>
        <r>    2.6976 </r>
        <r>    3.1043 </r>
        <r>    3.1043 </r>
        <r>    3.1053 </r>
        <r>    4.3571 </r>
        <r>    4.4413 </r>
        <r>    4.4508 </r>
        <r>    5.1742 </r>
        <r>    5.2149 </r>
        <r>    5.5885 </r>
        <r>    5.6299 </r>
        <r>    5.6299 </r>
        <r>    5.6739 </r>
        <r>    5.7289 </r>
        <r>    5.7289 </r>
        <r>    5.8530 </r>
        <r>    5.8530 </r>
        <r>    5.8684 </r>
        <r>    8.5074 </r>
        <r>    8.5074 </r>
        <r>    9.3982 </r>
        <r>   14.4348 </r>
        <r>   15.2570 </r>
        <r>   15.2570 </r>
        <r>   18.2926 </r>
        <r>   19.7640 </r>
        <r>   19.7640 </r>
        <r>   20.0001 </r>
        <r>   20.0001 </r>
        <r>   20.6051 </r>
        <r>   25.5996 </r>
        <r>   25.6289 </r>
        <r>   25.6289 </r>
        <r>   28.0509 </r>
        <r>   28.0509 </r>
        <r>   28.6816 </r>
        <r>   28.9152 </r>
        <r>   29.9352 </r>
        <r>   31.4222 </r>
        <r>   32.6126 </r>
        <r>   34.9034 </r>
        <r>   35.7576 </r>
        <r>   37.2593 </r>
        <r>   39.5371 </r>
        <r>   40.5421 </r>
       </set>
       <set comment="kpoint 11">
        <r>   -1.5927 </r>
        <r>    2.6603 </r>
        <r>    2.6603 </r>
        <r>    2.7193 </r>
        <r>    3.1173 </r>
        <r>    3.1173 </r>
        <r>    3.1184 </r>
        <r>    4.3461 </r>
        <r>    4.4496 </r>
        <r>    4.4606 </r>
        <r>    5.1661 </r>
        <r>    5.2168 </r>
        <r>    5.5293 </r>
        <r>    5.5796 </r>
        <r>    5.5796 </r>
        <r>    5.6582 </r>
        <r>    5.7155 </r>
        <r>    5.7155 </r>
        <r>    5.8431 </r>
        <r>    5.8431 </r>
        <r>    5.8620 </r>
        <r>    8.4397 </r>
        <r>    8.4397 </r>
        <r>    9.5086 </r>
        <r>   14.4536 </r>
        <r>   15.4486 </r>
        <r>   15.4486 </r>
        <r>   17.9512 </r>
        <r>   19.6608 </r>
        <r>   19.6608 </r>
        <r>   19.9380 </r>
        <r>   19.9380 </r>
        <r>   20.6751 </r>
        <r>   25.6770 </r>
        <r>   25.8100 </r>
        <r>   25.8100 </r>
        <r>   28.2111 </r>
        <r>   28.2111 </r>
        <r>   28.4067 </r>
        <r>   29.2787 </r>
        <r>   29.5739 </r>
        <r>   31.4114 </r>
        <r>   32.6821 </r>
        <r>   34.9289 </r>
        <r>   35.7588 </r>
        <r>   37.6441 </r>
        <r>   39.7491 </r>
        <r>   40.1646 </r>
       </set>
       <set comment="kpoint 12">
        <r>   -1.5386 </r>
        <r>    2.6721 </r>
        <r>    2.6721 </r>
        <r>    2.7429 </r>
        <r>    3.1315 </r>
        <r>    3.1315 </r>
        <r>    3.1327 </r>
        <r>    4.3344 </r>
        <r>    4.4589 </r>
        <r>    4.4711 </r>
        <r>    5.1575 </r>
        <r>    5.2194 </r>
        <r>    5.4676 </r>
        <r>    5.5226 </r>
        <r>    5.5226 </r>
        <r>    5.6411 </r>
        <r>    5.7032 </r>
        <r>    5.7032 </r>
        <r>    5.8323 </r>
        <r>    5.8323 </r>
        <r>    5.8549 </r>
        <r>    8.3707 </r>
        <r>    8.3707 </r>
        <r>    9.6265 </r>
        <r>   14.4743 </r>
        <r>   15.6539 </r>
        <r>   15.6539 </r>
        <r>   17.6042 </r>
        <r>   19.5540 </r>
        <r>   19.5540 </r>
        <r>   19.8727 </r>
        <r>   19.8727 </r>
        <r>   20.7521 </r>
        <r>   25.7458 </r>
        <r>   26.0029 </r>
        <r>   26.0029 </r>
        <r>   28.1151 </r>
        <r>   28.3844 </r>
        <r>   28.3844 </r>
        <r>   29.2104 </r>
        <r>   29.6675 </r>
        <r>   31.4211 </r>
        <r>   32.7587 </r>
        <r>   34.9571 </r>
        <r>   35.7275 </r>
        <r>   38.0336 </r>
        <r>   39.7870 </r>
        <r>   39.9550 </r>
       </set>
       <set comment="kpoint 13">
        <r>   -1.4795 </r>
        <r>    2.6849 </r>
        <r>    2.6849 </r>
        <r>    2.7684 </r>
        <r>    3.1471 </r>
        <r>    3.1471 </r>
        <r>    3.1481 </r>
        <r>    4.3217 </r>
        <r>    4.4689 </r>
        <r>    4.4819 </r>
        <r>    5.1483 </r>
        <r>    5.2226 </r>
        <r>    5.4044 </r>
        <r>    5.4605 </r>
        <r>    5.4605 </r>
        <r>    5.6227 </r>
        <r>    5.6909 </r>
        <r>    5.6909 </r>
        <r>    5.8206 </r>
        <r>    5.8206 </r>
        <r>    5.8472 </r>
        <r>    8.3014 </r>
        <r>    8.3014 </r>
        <r>    9.7514 </r>
        <r>   14.4969 </r>
        <r>   15.8716 </r>
        <r>   15.8716 </r>
        <r>   17.2538 </r>
        <r>   19.4448 </r>
        <r>   19.4448 </r>
        <r>   19.8047 </r>
        <r>   19.8047 </r>
        <r>   20.8361 </r>
        <r>   25.8078 </r>
        <r>   26.2066 </r>
        <r>   26.2066 </r>
        <r>   27.8113 </r>
        <r>   28.5699 </r>
        <r>   28.5699 </r>
        <r>   28.8460 </r>
        <r>   30.0776 </r>
        <r>   31.4481 </r>
        <r>   32.8424 </r>
        <r>   34.9880 </r>
        <r>   35.6666 </r>
        <r>   38.4260 </r>
        <r>   39.4101 </r>
        <r>   40.1415 </r>
       </set>
       <set comment="kpoint 14">
        <r>   -1.4155 </r>
        <r>    2.6984 </r>
        <r>    2.6984 </r>
        <r>    2.7955 </r>
        <r>    3.1637 </r>
        <r>    3.1637 </r>
        <r>    3.1647 </r>
        <r>    4.3083 </r>
        <r>    4.4798 </r>
        <r>    4.4930 </r>
        <r>    5.1384 </r>
        <r>    5.2266 </r>
        <r>    5.3400 </r>
        <r>    5.3939 </r>
        <r>    5.3939 </r>
        <r>    5.6031 </r>
        <r>    5.6780 </r>
        <r>    5.6780 </r>
        <r>    5.8078 </r>
        <r>    5.8078 </r>
        <r>    5.8388 </r>
        <r>    8.2324 </r>
        <r>    8.2324 </r>
        <r>    9.8827 </r>
        <r>   14.5213 </r>
        <r>   16.1008 </r>
        <r>   16.1008 </r>
        <r>   16.9017 </r>
        <r>   19.3338 </r>
        <r>   19.3338 </r>
        <r>   19.7347 </r>
        <r>   19.7347 </r>
        <r>   20.9270 </r>
        <r>   25.8648 </r>
        <r>   26.4203 </r>
        <r>   26.4203 </r>
        <r>   27.4986 </r>
        <r>   28.4817 </r>
        <r>   28.7669 </r>
        <r>   28.7669 </r>
        <r>   30.5059 </r>
        <r>   31.4896 </r>
        <r>   32.9330 </r>
        <r>   35.0218 </r>
        <r>   35.5795 </r>
        <r>   38.8198 </r>
        <r>   39.0343 </r>
        <r>   40.2975 </r>
       </set>
       <set comment="kpoint 15">
        <r>   -1.3466 </r>
        <r>    2.7128 </r>
        <r>    2.7128 </r>
        <r>    2.8242 </r>
        <r>    3.1815 </r>
        <r>    3.1815 </r>
        <r>    3.1823 </r>
        <r>    4.2940 </r>
        <r>    4.4915 </r>
        <r>    4.5041 </r>
        <r>    5.1281 </r>
        <r>    5.2315 </r>
        <r>    5.2751 </r>
        <r>    5.3239 </r>
        <r>    5.3239 </r>
        <r>    5.5825 </r>
        <r>    5.6645 </r>
        <r>    5.6645 </r>
        <r>    5.7942 </r>
        <r>    5.7942 </r>
        <r>    5.8298 </r>
        <r>    8.1642 </r>
        <r>    8.1642 </r>
        <r>   10.0199 </r>
        <r>   14.5472 </r>
        <r>   16.3406 </r>
        <r>   16.3406 </r>
        <r>   16.5496 </r>
        <r>   19.2219 </r>
        <r>   19.2219 </r>
        <r>   19.6633 </r>
        <r>   19.6633 </r>
        <r>   21.0246 </r>
        <r>   25.9181 </r>
        <r>   26.6431 </r>
        <r>   26.6431 </r>
        <r>   27.1797 </r>
        <r>   28.1182 </r>
        <r>   28.9746 </r>
        <r>   28.9746 </r>
        <r>   30.9498 </r>
        <r>   31.5435 </r>
        <r>   33.0304 </r>
        <r>   35.0584 </r>
        <r>   35.4692 </r>
        <r>   38.6601 </r>
        <r>   39.2135 </r>
        <r>   40.4183 </r>
       </set>
       <set comment="kpoint 16">
        <r>   -1.2728 </r>
        <r>    2.7278 </r>
        <r>    2.7278 </r>
        <r>    2.8543 </r>
        <r>    3.2004 </r>
        <r>    3.2004 </r>
        <r>    3.2008 </r>
        <r>    4.2791 </r>
        <r>    4.5040 </r>
        <r>    4.5151 </r>
        <r>    5.1173 </r>
        <r>    5.2100 </r>
        <r>    5.2376 </r>
        <r>    5.2508 </r>
        <r>    5.2508 </r>
        <r>    5.5609 </r>
        <r>    5.6501 </r>
        <r>    5.6501 </r>
        <r>    5.7797 </r>
        <r>    5.7797 </r>
        <r>    5.8202 </r>
        <r>    8.0973 </r>
        <r>    8.0973 </r>
        <r>   10.1627 </r>
        <r>   14.5738 </r>
        <r>   16.1995 </r>
        <r>   16.5901 </r>
        <r>   16.5901 </r>
        <r>   19.1098 </r>
        <r>   19.1098 </r>
        <r>   19.5911 </r>
        <r>   19.5911 </r>
        <r>   21.1288 </r>
        <r>   25.9691 </r>
        <r>   26.8567 </r>
        <r>   26.8744 </r>
        <r>   26.8744 </r>
        <r>   27.7561 </r>
        <r>   29.1923 </r>
        <r>   29.1923 </r>
        <r>   31.4070 </r>
        <r>   31.6082 </r>
        <r>   33.1347 </r>
        <r>   35.0978 </r>
        <r>   35.3385 </r>
        <r>   38.2880 </r>
        <r>   39.6057 </r>
        <r>   40.5065 </r>
       </set>
       <set comment="kpoint 17">
        <r>   -1.1943 </r>
        <r>    2.7433 </r>
        <r>    2.7433 </r>
        <r>    2.8858 </r>
        <r>    3.2202 </r>
        <r>    3.2203 </r>
        <r>    3.2203 </r>
        <r>    4.2633 </r>
        <r>    4.5170 </r>
        <r>    4.5258 </r>
        <r>    5.1059 </r>
        <r>    5.1451 </r>
        <r>    5.1753 </r>
        <r>    5.1753 </r>
        <r>    5.2449 </r>
        <r>    5.5384 </r>
        <r>    5.6348 </r>
        <r>    5.6348 </r>
        <r>    5.7643 </r>
        <r>    5.7643 </r>
        <r>    5.8099 </r>
        <r>    8.0320 </r>
        <r>    8.0320 </r>
        <r>   10.3107 </r>
        <r>   14.5993 </r>
        <r>   15.8539 </r>
        <r>   16.8487 </r>
        <r>   16.8487 </r>
        <r>   18.9980 </r>
        <r>   18.9980 </r>
        <r>   19.5186 </r>
        <r>   19.5186 </r>
        <r>   21.2396 </r>
        <r>   26.0185 </r>
        <r>   26.5309 </r>
        <r>   27.1137 </r>
        <r>   27.1137 </r>
        <r>   27.3959 </r>
        <r>   29.4191 </r>
        <r>   29.4191 </r>
        <r>   31.6827 </r>
        <r>   31.8760 </r>
        <r>   33.2456 </r>
        <r>   35.1401 </r>
        <r>   35.1901 </r>
        <r>   37.9180 </r>
        <r>   39.9948 </r>
        <r>   40.5692 </r>
       </set>
       <set comment="kpoint 18">
        <r>   -1.1111 </r>
        <r>    2.7594 </r>
        <r>    2.7594 </r>
        <r>    2.9185 </r>
        <r>    3.2404 </r>
        <r>    3.2413 </r>
        <r>    3.2413 </r>
        <r>    4.2472 </r>
        <r>    4.5310 </r>
        <r>    4.5360 </r>
        <r>    5.0806 </r>
        <r>    5.0943 </r>
        <r>    5.0981 </r>
        <r>    5.0981 </r>
        <r>    5.2538 </r>
        <r>    5.5152 </r>
        <r>    5.6185 </r>
        <r>    5.6185 </r>
        <r>    5.7481 </r>
        <r>    5.7481 </r>
        <r>    5.7989 </r>
        <r>    7.9686 </r>
        <r>    7.9686 </r>
        <r>   10.4636 </r>
        <r>   14.6189 </r>
        <r>   15.5185 </r>
        <r>   17.1156 </r>
        <r>   17.1156 </r>
        <r>   18.8869 </r>
        <r>   18.8869 </r>
        <r>   19.4462 </r>
        <r>   19.4462 </r>
        <r>   21.3568 </r>
        <r>   26.0673 </r>
        <r>   26.2037 </r>
        <r>   27.0381 </r>
        <r>   27.3605 </r>
        <r>   27.3605 </r>
        <r>   29.6544 </r>
        <r>   29.6544 </r>
        <r>   31.7659 </r>
        <r>   32.3553 </r>
        <r>   33.3631 </r>
        <r>   35.0264 </r>
        <r>   35.1853 </r>
        <r>   37.5505 </r>
        <r>   40.3796 </r>
        <r>   40.6149 </r>
       </set>
       <set comment="kpoint 19">
        <r>   -1.0232 </r>
        <r>    2.7758 </r>
        <r>    2.7758 </r>
        <r>    2.9522 </r>
        <r>    3.2613 </r>
        <r>    3.2633 </r>
        <r>    3.2633 </r>
        <r>    4.2306 </r>
        <r>    4.5454 </r>
        <r>    4.5457 </r>
        <r>    5.0168 </r>
        <r>    5.0197 </r>
        <r>    5.0197 </r>
        <r>    5.0824 </r>
        <r>    5.2644 </r>
        <r>    5.4912 </r>
        <r>    5.6012 </r>
        <r>    5.6012 </r>
        <r>    5.7312 </r>
        <r>    5.7312 </r>
        <r>    5.7874 </r>
        <r>    7.9073 </r>
        <r>    7.9073 </r>
        <r>   10.6211 </r>
        <r>   14.6166 </r>
        <r>   15.2101 </r>
        <r>   17.3901 </r>
        <r>   17.3901 </r>
        <r>   18.7772 </r>
        <r>   18.7772 </r>
        <r>   19.3746 </r>
        <r>   19.3746 </r>
        <r>   21.4804 </r>
        <r>   25.8758 </r>
        <r>   26.1160 </r>
        <r>   26.6830 </r>
        <r>   27.6144 </r>
        <r>   27.6144 </r>
        <r>   29.8972 </r>
        <r>   29.8972 </r>
        <r>   31.8572 </r>
        <r>   32.8439 </r>
        <r>   33.4870 </r>
        <r>   34.8496 </r>
        <r>   35.2334 </r>
        <r>   37.1856 </r>
        <r>   40.6507 </r>
        <r>   40.7584 </r>
       </set>
       <set comment="kpoint 20">
        <r>   -0.9308 </r>
        <r>    2.7924 </r>
        <r>    2.7924 </r>
        <r>    2.9868 </r>
        <r>    3.2827 </r>
        <r>    3.2862 </r>
        <r>    3.2862 </r>
        <r>    4.2133 </r>
        <r>    4.5537 </r>
        <r>    4.5611 </r>
        <r>    4.9407 </r>
        <r>    4.9407 </r>
        <r>    4.9539 </r>
        <r>    5.0701 </r>
        <r>    5.2769 </r>
        <r>    5.4667 </r>
        <r>    5.5829 </r>
        <r>    5.5829 </r>
        <r>    5.7134 </r>
        <r>    5.7134 </r>
        <r>    5.7752 </r>
        <r>    7.8481 </r>
        <r>    7.8481 </r>
        <r>   10.7830 </r>
        <r>   14.5340 </r>
        <r>   14.9877 </r>
        <r>   17.6715 </r>
        <r>   17.6715 </r>
        <r>   18.6690 </r>
        <r>   18.6690 </r>
        <r>   19.3043 </r>
        <r>   19.3043 </r>
        <r>   21.6101 </r>
        <r>   25.5478 </r>
        <r>   26.1652 </r>
        <r>   26.3308 </r>
        <r>   27.8750 </r>
        <r>   27.8750 </r>
[...]
       <r>   33.5486    0.0000 </r>
       <r>   33.6106    0.0000 </r>
       <r>   33.6106    0.0000 </r>
       <r>   34.1440    0.0000 </r>
       <r>   34.1440    0.0000 </r>
       <r>   36.0507    0.0000 </r>
       <r>   36.0507    0.0000 </r>
      </set>
      <set comment="kpoint 34">
       <r>    2.4350    1.0000 </r>
       <r>    2.4350    1.0000 </r>
       <r>    2.4350    1.0000 </r>
       <r>    2.4350    1.0000 </r>
       <r>    4.3386    1.0000 </r>
       <r>    4.3386    1.0000 </r>
       <r>    4.3386    1.0000 </r>
       <r>    4.3386    1.0000 </r>
       <r>    4.4203    1.0000 </r>
       <r>    4.4203    1.0000 </r>
       <r>    4.4203    1.0000 </r>
       <r>    4.4203    1.0000 </r>
       <r>    5.2747    1.0000 </r>
       <r>    5.2747    1.0000 </r>
       <r>    5.2747    1.0000 </r>
       <r>    5.2747    1.0000 </r>
       <r>    5.7039    1.0000 </r>
       <r>    5.7039    1.0000 </r>
       <r>    5.7039    1.0000 </r>
       <r>    5.7039    1.0000 </r>
       <r>    6.6992    1.0000 </r>
       <r>    6.6992    1.0000 </r>
       <r>    6.6992    1.0000 </r>
       <r>    6.6992    1.0000 </r>
       <r>   11.5567    0.0000 </r>
       <r>   11.5567    0.0000 </r>
       <r>   11.5567    0.0000 </r>
       <r>   11.5567    0.0000 </r>
       <r>   26.6416    0.0000 </r>
       <r>   26.6416    0.0000 </r>
       <r>   26.6416    0.0000 </r>
       <r>   26.6416    0.0000 </r>
       <r>   28.6728    0.0000 </r>
       <r>   28.6728    0.0000 </r>
       <r>   28.6728    0.0000 </r>
       <r>   28.6728    0.0000 </r>
       <r>   28.7780    0.0000 </r>
       <r>   28.7780    0.0000 </r>
       <r>   28.7780    0.0000 </r>
       <r>   28.7780    0.0000 </r>
       <r>   32.8867    0.0000 </r>
       <r>   32.8867    0.0000 </r>
       <r>   32.8867    0.0000 </r>
       <r>   32.8867    0.0000 </r>
       <r>   33.9247    0.0000 </r>
       <r>   33.9247    0.0000 </r>
       <r>   33.9247    0.0000 </r>
       <r>   33.9247    0.0000 </r>
      </set>
      <set comment="kpoint 35">
       <r>    2.3945    1.0000 </r>
       <r>    2.3945    1.0000 </r>
       <r>    2.3945    1.0000 </r>
       <r>    2.3945    1.0000 </r>
       <r>    4.3730    1.0000 </r>
       <r>    4.3730    1.0000 </r>
       <r>    4.3730    1.0000 </r>
       <r>    4.3730    1.0000 </r>
       <r>    4.3730    1.0000 </r>
       <r>    4.3730    1.0000 </r>
       <r>    4.3730    1.0000 </r>
       <r>    4.3730    1.0000 </r>
       <r>    5.7566    1.0000 </r>
       <r>    5.7566    1.0000 </r>
       <r>    5.7566    1.0000 </r>
       <r>    5.7566    1.0000 </r>
       <r>    5.7566    1.0000 </r>
       <r>    5.7566    1.0000 </r>
       <r>    5.7566    1.0000 </r>
       <r>    5.7566    1.0000 </r>
       <r>    6.4131    1.0000 </r>
       <r>    6.4131    1.0000 </r>
       <r>    6.4131    1.0000 </r>
       <r>    6.4131    1.0000 </r>
       <r>   11.0325    0.0000 </r>
       <r>   11.0325    0.0000 </r>
       <r>   11.0325    0.0000 </r>
       <r>   11.0325    0.0000 </r>
       <r>   28.3147    0.0000 </r>
       <r>   28.3147    0.0000 </r>
       <r>   28.3147    0.0000 </r>
       <r>   28.3147    0.0000 </r>
       <r>   29.1494    0.0000 </r>
       <r>   29.1494    0.0000 </r>
       <r>   29.1494    0.0000 </r>
       <r>   29.1494    0.0000 </r>
       <r>   29.1494    0.0000 </r>
       <r>   29.1494    0.0000 </r>
       <r>   29.1494    0.0000 </r>
       <r>   29.1494    0.0000 </r>
       <r>   32.1835    0.0000 </r>
       <r>   32.1835    0.0000 </r>
       <r>   32.1835    0.0000 </r>
       <r>   32.1835    0.0000 </r>
       <r>   32.1835    0.0000 </r>
       <r>   32.1835    0.0000 </r>
       <r>   32.1835    0.0000 </r>
       <r>   32.1835    0.0000 </r>
      </set>
     </set>
    </set>
   </array>
  </eigenvalues>
  <separator name="orbital magnetization" >
   <v name="MAGDIPOLOUT">      0.00000000      0.00000000      0.00000000</v>
  </separator>
  <dos>
   <i name="efermi">      7.32048472 </i>
   <total>
    <array>
     <dimension dim="1">gridpoints</dimension>
     <dimension dim="2">spin</dimension>
     <field>energy</field>
     <field>total</field>
     <field>integrated</field>
     <set>
      <set comment="spin 1">
       <r>    -4.1044     0.0000     0.0000 </r>
       <r>    -3.9392     0.0000     0.0000 </r>
       <r>    -3.7741     0.0000     0.0000 </r>
       <r>    -3.6089     0.0000     0.0000 </r>
       <r>    -3.4438     0.0000     0.0000 </r>
       <r>    -3.2786     0.0000     0.0000 </r>
       <r>    -3.1135     0.0000     0.0000 </r>
       <r>    -2.9483     0.0000     0.0000 </r>
       <r>    -2.7832     0.0000     0.0000 </r>
       <r>    -2.6180     0.0000     0.0000 </r>
       <r>    -2.4528     0.0000     0.0000 </r>
       <r>    -2.2877     0.0000     0.0000 </r>
       <r>    -2.1225     0.0000     0.0000 </r>
       <r>    -1.9574     0.0000     0.0000 </r>
       <r>    -1.7922     0.0226     0.0037 </r>
       <r>    -1.6271     0.1229     0.0240 </r>
       <r>    -1.4619     0.2163     0.0598 </r>
       <r>    -1.2968     0.1810     0.0897 </r>
       <r>    -1.1316     0.1379     0.1124 </r>
       <r>    -0.9665     0.1971     0.1450 </r>
       <r>    -0.8013     0.5276     0.2321 </r>
       <r>    -0.6361     0.5101     0.3164 </r>
       <r>    -0.4710     0.0088     0.3178 </r>
       <r>    -0.3058     0.2926     0.3662 </r>
       <r>    -0.1407     0.6970     0.4813 </r>
       <r>     0.0245     0.5666     0.5748 </r>
       <r>     0.1896     0.5709     0.6691 </r>
       <r>     0.3548     0.1908     0.7006 </r>
       <r>     0.5199     0.6174     0.8026 </r>
       <r>     0.6851     1.0757     0.9803 </r>
       <r>     0.8502     0.0280     0.9849 </r>
       <r>     1.0154     0.7308     1.1056 </r>
       <r>     1.1806     0.9399     1.2608 </r>
       <r>     1.3457     0.9441     1.4168 </r>
       <r>     1.5109     0.6223     1.5195 </r>
       <r>     1.6760     1.6986     1.8001 </r>
       <r>     1.8412     0.1945     1.8322 </r>
       <r>     2.0063     0.7279     1.9524 </r>
       <r>     2.1715     2.4885     2.3634 </r>
       <r>     2.3366     1.9255     2.6814 </r>
       <r>     2.5018     2.3439     3.0685 </r>
       <r>     2.6669     3.7741     3.6918 </r>
       <r>     2.8321     4.7294     4.4729 </r>
       <r>     2.9973     5.9537     5.4562 </r>
       <r>     3.1624     5.6125     6.3831 </r>
       <r>     3.3276     9.8079     8.0029 </r>
       <r>     3.4927     8.5954     9.4225 </r>
       <r>     3.6579     9.1815    10.9388 </r>
       <r>     3.8230     8.0699    12.2716 </r>
       <r>     3.9882    10.1543    13.9486 </r>
       <r>     4.1533    12.4563    16.0059 </r>
       <r>     4.3185    12.8380    18.1261 </r>
       <r>     4.4836    16.3067    20.8192 </r>
       <r>     4.6488    18.3217    23.8452 </r>
       <r>     4.8140    11.2977    25.7110 </r>
       <r>     4.9791    11.6681    27.6380 </r>
       <r>     5.1443    15.3075    30.1662 </r>
       <r>     5.3094    13.2349    32.3519 </r>
       <r>     5.4746    13.8159    34.6337 </r>
       <r>     5.6397    15.1664    37.1385 </r>
       <r>     5.8049    20.7725    40.5692 </r>
       <r>     5.9700     9.2572    42.0981 </r>
       <r>     6.1352     0.3580    42.1572 </r>
       <r>     6.3003     2.0437    42.4947 </r>
       <r>     6.4655     2.1284    42.8462 </r>
       <r>     6.6307     1.0662    43.0223 </r>
       <r>     6.7958     1.5418    43.2769 </r>
       <r>     6.9610     0.6017    43.3763 </r>
       <r>     7.1261     1.5574    43.6335 </r>
       <r>     7.2913     1.8753    43.9433 </r>
       <r>     7.4564     0.9913    44.1070 </r>
       <r>     7.6216     1.3144    44.3241 </r>
       <r>     7.7867     1.0354    44.4951 </r>
       <r>     7.9519     0.5737    44.5898 </r>
       <r>     8.1170     0.6910    44.7039 </r>
       <r>     8.2822     2.5437    45.1241 </r>
       <r>     8.4474     0.7390    45.2461 </r>
       <r>     8.6125     0.4873    45.3266 </r>
       <r>     8.7777     1.7549    45.6164 </r>
       <r>     8.9428     0.6151    45.7180 </r>
       <r>     9.1080     1.1867    45.9140 </r>
       <r>     9.2731     0.2839    45.9609 </r>
       <r>     9.4383     0.8781    46.1059 </r>
       <r>     9.6034     2.1926    46.4680 </r>
       <r>     9.7686     0.5787    46.5636 </r>
       <r>     9.9337     1.4587    46.8045 </r>
       <r>    10.0989     0.0012    46.8047 </r>
       <r>    10.2641     0.4777    46.8836 </r>
       <r>    10.4292     0.2856    46.9307 </r>
       <r>    10.5944     0.6910    47.0449 </r>
       <r>    10.7595     1.4060    47.2771 </r>
       <r>    10.9247     1.3964    47.5077 </r>
       <r>    11.0898     0.1422    47.5312 </r>
       <r>    11.2550     0.9231    47.6836 </r>
       <r>    11.4201     0.6501    47.7910 </r>
       <r>    11.5853     1.0784    47.9691 </r>
       <r>    11.7504     1.4575    48.2098 </r>
       <r>    11.9156     1.5268    48.4620 </r>
       <r>    12.0808     1.7151    48.7452 </r>
       <r>    12.2459     0.5612    48.8379 </r>
       <r>    12.4111     1.1833    49.0334 </r>
       <r>    12.5762     0.9981    49.1982 </r>
       <r>    12.7414     0.4747    49.2766 </r>
       <r>    12.9065     1.5276    49.5289 </r>
       <r>    13.0717     1.1646    49.7212 </r>
       <r>    13.2368     0.9502    49.8781 </r>
       <r>    13.4020     1.2021    50.0767 </r>
       <r>    13.5671     0.4319    50.1480 </r>
       <r>    13.7323     1.7504    50.4371 </r>
       <r>    13.8975     1.0952    50.6180 </r>
       <r>    14.0626     0.6251    50.7212 </r>
       <r>    14.2278     0.4558    50.7965 </r>
       <r>    14.3929     1.4484    51.0357 </r>
       <r>    14.5581     1.9718    51.3614 </r>
       <r>    14.7232     0.8186    51.4965 </r>
       <r>    14.8884     0.0659    51.5074 </r>
       <r>    15.0535     1.2783    51.7186 </r>
       <r>    15.2187     0.7876    51.8486 </r>
       <r>    15.3838     2.2978    52.2281 </r>
       <r>    15.5490     1.6890    52.5071 </r>
       <r>    15.7142     1.1772    52.7015 </r>
       <r>    15.8793     0.5084    52.7854 </r>
       <r>    16.0445     2.1939    53.1478 </r>
       <r>    16.2096     1.7903    53.4435 </r>
       <r>    16.3748     2.1770    53.8030 </r>
       <r>    16.5399     1.3529    54.0264 </r>
       <r>    16.7051     0.5408    54.1158 </r>
       <r>    16.8702     1.3183    54.3335 </r>
       <r>    17.0354     1.5890    54.5959 </r>
       <r>    17.2005     2.1791    54.9558 </r>
       <r>    17.3657     1.1085    55.1389 </r>
       <r>    17.5309     2.5901    55.5666 </r>
       <r>    17.6960     0.2368    55.6057 </r>
       <r>    17.8612     1.2848    55.8179 </r>
       <r>    18.0263     0.5413    55.9073 </r>
       <r>    18.1915     2.7860    56.3674 </r>
       <r>    18.3566     1.6221    56.6353 </r>
       <r>    18.5218     2.2464    57.0063 </r>
       <r>    18.6869     0.7146    57.1243 </r>
       <r>    18.8521     0.7315    57.2452 </r>
       <r>    19.0172     1.1883    57.4414 </r>
       <r>    19.1824     1.2687    57.6509 </r>
       <r>    19.3476     4.0126    58.3137 </r>
       <r>    19.5127     1.4617    58.5551 </r>
       <r>    19.6779     0.6751    58.6666 </r>
       <r>    19.8430     2.1862    59.0276 </r>
       <r>    20.0082     2.2455    59.3985 </r>
       <r>    20.1733     1.5836    59.6600 </r>
       <r>    20.3385     0.8240    59.7961 </r>
       <r>    20.5036     2.0715    60.1382 </r>
       <r>    20.6688     3.7158    60.7519 </r>
       <r>    20.8339     0.6721    60.8629 </r>
       <r>    20.9991     0.9228    61.0153 </r>
       <r>    21.1643     1.9873    61.3435 </r>
       <r>    21.3294     2.6087    61.7744 </r>
       <r>    21.4946     0.8983    61.9227 </r>
       <r>    21.6597     0.5450    62.0128 </r>
       <r>    21.8249     1.0681    62.1892 </r>
       <r>    21.9900     1.8076    62.4877 </r>
       <r>    22.1552     1.9996    62.8179 </r>
       <r>    22.3203     2.9806    63.3102 </r>
       <r>    22.4855     1.6477    63.5823 </r>
       <r>    22.6506     1.3899    63.8119 </r>
       <r>    22.8158     1.8875    64.1236 </r>
       <r>    22.9810     1.5721    64.3832 </r>
       <r>    23.1461     1.1571    64.5743 </r>
       <r>    23.3113     1.0150    64.7420 </r>
       <r>    23.4764     1.4377    64.9794 </r>
       <r>    23.6416     3.7147    65.5929 </r>
       <r>    23.8067     0.0293    65.5977 </r>
       <r>    23.9719     0.7888    65.7280 </r>
       <r>    24.1370     1.0666    65.9042 </r>
       <r>    24.3022     0.9783    66.0657 </r>
       <r>    24.4673     1.2480    66.2719 </r>
       <r>    24.6325     1.6158    66.5387 </r>
       <r>    24.7977     1.7142    66.8218 </r>
       <r>    24.9628     2.2868    67.1995 </r>
       <r>    25.1280     0.9641    67.3587 </r>
       <r>    25.2931     1.0453    67.5314 </r>
       <r>    25.4583     0.9705    67.6917 </r>
       <r>    25.6234     0.4472    67.7655 </r>
       <r>    25.7886     0.1362    67.7880 </r>
       <r>    25.9537     2.7418    68.2408 </r>
       <r>    26.1189     1.3151    68.4580 </r>
       <r>    26.2840     1.5251    68.7099 </r>
       <r>    26.4492     1.9343    69.0294 </r>
       <r>    26.6144     3.3240    69.5783 </r>
       <r>    26.7795     2.3063    69.9592 </r>
       <r>    26.9447     0.1464    69.9834 </r>
       <r>    27.1098     0.8212    70.1190 </r>
       <r>    27.2750     2.4584    70.5250 </r>
       <r>    27.4401     1.9714    70.8506 </r>
       <r>    27.6053     3.3630    71.4060 </r>
       <r>    27.7704     2.4897    71.8172 </r>
       <r>    27.9356     2.5002    72.2301 </r>
       <r>    28.1007     0.8529    72.3710 </r>
       <r>    28.2659     1.3703    72.5973 </r>
       <r>    28.4311     3.4311    73.1640 </r>
       <r>    28.5962     1.3140    73.3810 </r>
       <r>    28.7614     3.2020    73.9098 </r>
       <r>    28.9265     3.4564    74.4807 </r>
       <r>    29.0917     0.8695    74.6242 </r>
       <r>    29.2568     2.0108    74.9563 </r>
       <r>    29.4220     3.1894    75.4831 </r>
       <r>    29.5871     0.6677    75.5933 </r>
       <r>    29.7523     3.1410    76.1121 </r>
       <r>    29.9174     2.8925    76.5898 </r>
       <r>    30.0826     0.8220    76.7256 </r>
       <r>    30.2478     0.9786    76.8872 </r>
       <r>    30.4129     2.9255    77.3703 </r>
       <r>    30.5781     1.2097    77.5701 </r>
       <r>    30.7432     2.9252    78.0532 </r>
       <r>    30.9084     1.3330    78.2734 </r>
       <r>    31.0735     2.1091    78.6217 </r>
       <r>    31.2387     4.7339    79.4035 </r>
       <r>    31.4038     1.7357    79.6902 </r>
       <r>    31.5690     1.4704    79.9330 </r>
       <r>    31.7341     0.1219    79.9532 </r>
       <r>    31.8993     1.0848    80.1323 </r>
       <r>    32.0645     1.8457    80.4371 </r>
       <r>    32.2296     1.5071    80.6860 </r>
       <r>    32.3948     0.7237    80.8056 </r>
       <r>    32.5599     0.6627    80.9150 </r>
       <r>    32.7251     0.2603    80.9580 </r>
       <r>    32.8902     2.2202    81.3247 </r>
       <r>    33.0554     2.2906    81.7030 </r>
       <r>    33.2205     1.6798    81.9804 </r>
       <r>    33.3857     1.2245    82.1826 </r>
       <r>    33.5508     1.1498    82.3725 </r>
       <r>    33.7160     1.8579    82.6794 </r>
       <r>    33.8812     1.1544    82.8700 </r>
       <r>    34.0463     3.2465    83.4062 </r>
       <r>    34.2115     3.0469    83.9094 </r>
       <r>    34.3766     1.7493    84.1983 </r>
       <r>    34.5418     2.7403    84.6509 </r>
       <r>    34.7069     2.2400    85.0208 </r>
       <r>    34.8721     1.6036    85.2857 </r>
       <r>    35.0372     2.0162    85.6186 </r>
       <r>    35.2024     2.0554    85.9581 </r>
       <r>    35.3675     1.5645    86.2165 </r>
       <r>    35.5327     2.7127    86.6645 </r>
       <r>    35.6979     2.1746    87.0236 </r>
       <r>    35.8630     1.1481    87.2132 </r>
       <r>    36.0282     2.8266    87.6801 </r>
       <r>    36.1933     2.9770    88.1717 </r>
       <r>    36.3585     0.5952    88.2700 </r>
       <r>    36.5236     1.5786    88.5308 </r>
       <r>    36.6888     2.3178    88.9136 </r>
       <r>    36.8539     2.7848    89.3735 </r>
       <r>    37.0191     0.6608    89.4826 </r>
       <r>    37.1842     0.2229    89.5194 </r>
       <r>    37.3494     3.6631    90.1244 </r>
       <r>    37.5146     2.6192    90.5570 </r>
       <r>    37.6797     1.7795    90.8509 </r>
       <r>    37.8449     0.7105    90.9682 </r>
       <r>    38.0100     0.7344    91.0895 </r>
       <r>    38.1752     2.9238    91.5724 </r>
       <r>    38.3403     2.7306    92.0233 </r>
       <r>    38.5055     2.6653    92.4635 </r>
       <r>    38.6706     1.6767    92.7404 </r>
       <r>    38.8358     0.7515    92.8646 </r>
       <r>    39.0009     2.1890    93.2261 </r>
       <r>    39.1661     1.8213    93.5269 </r>
       <r>    39.3313     2.5145    93.9422 </r>
       <r>    39.4964     2.4997    94.3550 </r>
       <r>    39.6616     1.5561    94.6120 </r>
       <r>    39.8267     1.1138    94.7960 </r>
       <r>    39.9919     1.2384    95.0005 </r>
       <r>    40.1570     0.5904    95.0980 </r>
       <r>    40.3222     0.0928    95.1133 </r>
       <r>    40.4873     0.7694    95.2404 </r>
       <r>    40.6525     1.3060    95.4561 </r>
       <r>    40.8176     0.4630    95.5325 </r>
       <r>    40.9828     0.6213    95.6351 </r>
       <r>    41.1480     0.2596    95.6780 </r>
       <r>    41.3131     0.7560    95.8029 </r>
       <r>    41.4783     0.3184    95.8555 </r>
       <r>    41.6434     0.1062    95.8730 </r>
       <r>    41.8086     0.0621    95.8833 </r>
       <r>    41.9737     0.5405    95.9725 </r>
       <r>    42.1389     0.0008    95.9727 </r>
       <r>    42.3040     0.0000    95.9727 </r>
       <r>    42.4692     0.0076    95.9739 </r>
       <r>    42.6343     0.1342    95.9961 </r>
       <r>    42.7995     0.0002    95.9961 </r>
       <r>    42.9647     0.0000    95.9961 </r>
       <r>    43.1298     0.0011    95.9963 </r>
       <r>    43.2950     0.0226    96.0000 </r>
       <r>    43.4601     0.0000    96.0000 </r>
       <r>    43.6253     0.0000    96.0000 </r>
       <r>    43.7904     0.0000    96.0000 </r>
       <r>    43.9556     0.0000    96.0000 </r>
       <r>    44.1207     0.0000    96.0000 </r>
       <r>    44.2859     0.0000    96.0000 </r>
       <r>    44.4510     0.0000    96.0000 </r>
       <r>    44.6162     0.0000    96.0000 </r>
       <r>    44.7814     0.0000    96.0000 </r>
       <r>    44.9465     0.0000    96.0000 </r>
       <r>    45.1117     0.0000    96.0000 </r>
       <r>    45.2768     0.0000    96.0000 </r>
       <r>    45.4420     0.0000    96.0000 </r>
      </set>
     </set>
    </array>
   </total>
  </dos>
 </calculation>
 <structure name="finalpos" >
  <crystal>
   <varray name="basis" >
    <v>       3.63689000       0.00000000       0.00000000 </v>
    <v>       0.00000000       3.63689000       0.00000000 </v>
    <v>       0.00000000       0.00000000       3.63689000 </v>
   </varray>
   <i name="volume">     48.10503082 </i>
   <varray name="rec_basis" >
    <v>       0.27496020      -0.00000000       0.00000000 </v>
    <v>       0.00000000       0.27496020       0.00000000 </v>
    <v>      -0.00000000      -0.00000000       0.27496020 </v>
   </varray>
  </crystal>
  <varray name="positions" >
   <v>       0.00000000       0.00000000       0.00000000 </v>
   <v>       0.00000000       0.50000000       0.50000000 </v>
   <v>       0.50000000       0.00000000       0.50000000 </v>
   <v>       0.50000000       0.50000000       0.00000000 </v>
  </varray>
 </structure>
</modeling>
