 DBCSR| CPU Multiplication driver                                           BLAS (U)
 DBCSR| Multrec recursion limit                                              512 (U)
 DBCSR| Multiplication stack size                                           1000 (D)
 DBCSR| Maximum elements for images                                    UNLIMITED (U)
 DBCSR| Multiplicative factor virtual images                                   1 (U)
 DBCSR| Use multiplication densification                                       T (D)
 DBCSR| Multiplication size stacks                                             3 (U)
 DBCSR| Use memory pool for CPU allocation                                     F (U)
 DBCSR| Number of 3D layers                                               SINGLE (U)
 DBCSR| Use MPI memory allocation                                              F (U)
 DBCSR| Use RMA algorithm                                                      F (U)
 DBCSR| Use Communication thread                                               T (U)
 DBCSR| Communication thread load                                             45 (D)
 DBCSR| MPI: My process id                                                     0
 DBCSR| MPI: Number of processes                                               8
 DBCSR| OMP: Current number of threads                                        12
 DBCSR| OMP: Max number of threads                                            12
 DBCSR| Split modifier for TAS multiplication algorithm                  1.0E+00 (U)


  **** **** ******  **  PROGRAM STARTED AT               2025-08-04 17:43:06.377
 ***** ** ***  *** **   PROGRAM STARTED ON                          i04r10c01s12
 **    ****   ******    PROGRAM STARTED BY                               di38fab
 ***** **    ** ** **   PROGRAM PROCESS ID                               3990776
  **** **  *******  **  PROGRAM STARTED IN /hppfs/scratch/04/di38fab/09_GTH/Delt
                                           a_Set/Xe/aug-SZV-MOLOPT-GTH-tier-2/12
                                           x12x12

 CP2K| version string:                 CP2K version 2025.1 (Development Version)
 CP2K| source code revision number:                                  git:3130539
 CP2K| cp2kflags: omp libint fftw3 libxc parallel scalapack max_contr=4         
 CP2K| is freely available from                            https://www.cp2k.org/
 CP2K| Program compiled at                         Tue Jun  3 16:14:32 CEST 2025
 CP2K| Program compiled on                                               login01
 CP2K| Program compiled for                                        Supermuc-foss
 CP2K| Data directory path                  /hppfs/work/pn36zo/di38fab/cp2k/data
 CP2K| Input file name                                                    GW.inp

 GLOBAL| Force Environment number                                              1
 GLOBAL| Basis set file name            /hppfs/scratch/04/di38fab/09_GTH/BASIS_A
 GLOBAL| Potential file name            /hppfs/work/pn36zo/di38fab/cp2k/data/GTH
 GLOBAL| MM Potential file name                                     MM_POTENTIAL
 GLOBAL| Coordinate file name                                             Xe.cif
 GLOBAL| Method name                                                        CP2K
 GLOBAL| Project name                                                       WSe2
 GLOBAL| Run type                                                         ENERGY
 GLOBAL| FFT library                                                       FFTW3
 GLOBAL| Diagonalization library                                       ScaLAPACK
 GLOBAL| Cholesky decomposition library                                ScaLAPACK
 GLOBAL| DGEMM library                                                      BLAS
 GLOBAL| Orthonormality check for eigenvectors                          DISABLED
 GLOBAL| Matrix multiplication library                                 ScaLAPACK
 GLOBAL| All-to-all communication in single precision                          F
 GLOBAL| FFTs using library dependent lengths                                  F
 GLOBAL| Grid backend                                                       AUTO
 GLOBAL| Global print level                                               MEDIUM
 GLOBAL| MPI I/O enabled                                                       T
 GLOBAL| Total number of message passing processes                             8
 GLOBAL| Number of threads for this process                                   12
 GLOBAL| This output is from process                                           0
 GLOBAL| OpenMP stack size per thread (OMP_STACKSIZE)                    default
 GLOBAL| CPU model name             Intel(R) Xeon(R) Platinum 8174 CPU @ 3.10GHz

 MEMORY| system memory details [Kb]
 MEMORY|                        rank 0           min           max       average
 MEMORY| MemTotal             98436664      98436664      98436664      98436664
 MEMORY| MemFree              84237924      84237924      84503056      84370490
 MEMORY| Buffers                     0             0             0             0
 MEMORY| Cached                2367440       2367440       2377088       2372264
 MEMORY| Slab                  1297152       1297152       1298672       1297912
 MEMORY| SReclaimable           274660        271960        274660        273310
 MEMORY| MemLikelyFree        86880024      86880024      87152104      87016064


 *** Fundamental physical constants (SI units) ***

 *** Literature: B. J. Mohr and B. N. Taylor,
 ***             CODATA recommended values of the fundamental physical
 ***             constants: 2006, Web Version 5.1
 ***             http://physics.nist.gov/constants

 Speed of light in vacuum [m/s]                             2.99792458000000E+08
 Magnetic constant or permeability of vacuum [N/A**2]       1.25663706143592E-06
 Electric constant or permittivity of vacuum [F/m]          8.85418781762039E-12
 Planck constant (h) [J*s]                                  6.62606896000000E-34
 Planck constant (h-bar) [J*s]                              1.05457162825177E-34
 Elementary charge [C]                                      1.60217648700000E-19
 Electron mass [kg]                                         9.10938215000000E-31
 Electron g factor [ ]                                     -2.00231930436220E+00
 Proton mass [kg]                                           1.67262163700000E-27
 Fine-structure constant                                    7.29735253760000E-03
 Rydberg constant [1/m]                                     1.09737315685270E+07
 Avogadro constant [1/mol]                                  6.02214179000000E+23
 Boltzmann constant [J/K]                                   1.38065040000000E-23
 Atomic mass unit [kg]                                      1.66053878200000E-27
 Bohr radius [m]                                            5.29177208590000E-11

 *** Conversion factors ***

 [u] -> [a.u.]                                              1.82288848426455E+03
 [Angstrom] -> [Bohr] = [a.u.]                              1.88972613288564E+00
 [a.u.] = [Bohr] -> [Angstrom]                              5.29177208590000E-01
 [a.u.] -> [s]                                              2.41888432650478E-17
 [a.u.] -> [fs]                                             2.41888432650478E-02
 [a.u.] -> [J]                                              4.35974393937059E-18
 [a.u.] -> [N]                                              8.23872205491840E-08
 [a.u.] -> [K]                                              3.15774647902944E+05
 [a.u.] -> [kJ/mol]                                         2.62549961709828E+03
 [a.u.] -> [kcal/mol]                                       6.27509468713739E+02
 [a.u.] -> [Pa]                                             2.94210107994716E+13
 [a.u.] -> [bar]                                            2.94210107994716E+08
 [a.u.] -> [atm]                                            2.90362800883016E+08
 [a.u.] -> [eV]                                             2.72113838565563E+01
 [a.u.] -> [Hz]                                             6.57968392072181E+15
 [a.u.] -> [1/cm] (wave numbers)                            2.19474631370540E+05
 [a.u./Bohr**2] -> [1/cm]                                   5.14048714338585E+03
 

 CELL_TOP| Volume [angstrom^3]:                                       351.121815
 CELL_TOP| Vector a [angstrom     7.055     0.000     0.000   |a| =     7.054820
 CELL_TOP| Vector b [angstrom     0.000     7.055     0.000   |b| =     7.054820
 CELL_TOP| Vector c [angstrom     0.000     0.000     7.055   |c| =     7.054820
 CELL_TOP| Angle (b,c), alpha [degree]:                                90.000000
 CELL_TOP| Angle (a,c), beta  [degree]:                                90.000000
 CELL_TOP| Angle (a,b), gamma [degree]:                                90.000000
 CELL_TOP| Numerically orthorhombic:                                         YES
 CELL_TOP| Periodicity                                                       XYZ

 CELL_CIF| Volume [angstrom^3]:                                       351.121815
 CELL_CIF| Vector a [angstrom     7.055     0.000     0.000   |a| =     7.054820
 CELL_CIF| Vector b [angstrom     0.000     7.055     0.000   |b| =     7.054820
 CELL_CIF| Vector c [angstrom     0.000     0.000     7.055   |c| =     7.054820
 CELL_CIF| Angle (b,c), alpha [degree]:                                90.000000
 CELL_CIF| Angle (a,c), beta  [degree]:                                90.000000
 CELL_CIF| Angle (a,b), gamma [degree]:                                90.000000
 CELL_CIF| Numerically orthorhombic:                                         YES
 CELL_CIF| Periodicity                                                       XYZ

 GENERATE|  Preliminary Number of Bonds generated:                             0
 GENERATE|  Achieved consistency in connectivity generation.

 CELL| Volume [angstrom^3]:                                           351.121815
 CELL| Vector a [angstrom]:       7.055     0.000     0.000   |a| =     7.054820
 CELL| Vector b [angstrom]:       0.000     7.055     0.000   |b| =     7.054820
 CELL| Vector c [angstrom]:       0.000     0.000     7.055   |c| =     7.054820
 CELL| Angle (b,c), alpha [degree]:                                    90.000000
 CELL| Angle (a,c), beta  [degree]:                                    90.000000
 CELL| Angle (a,b), gamma [degree]:                                    90.000000
 CELL| Numerically orthorhombic:                                             YES
 CELL| Periodicity                                                           XYZ

 CELL_REF| Volume [angstrom^3]:                                       351.121815
 CELL_REF| Vector a [angstrom     7.055     0.000     0.000   |a| =     7.054820
 CELL_REF| Vector b [angstrom     0.000     7.055     0.000   |b| =     7.054820
 CELL_REF| Vector c [angstrom     0.000     0.000     7.055   |c| =     7.054820
 CELL_REF| Angle (b,c), alpha [degree]:                                90.000000
 CELL_REF| Angle (a,c), beta  [degree]:                                90.000000
 CELL_REF| Angle (a,b), gamma [degree]:                                90.000000
 CELL_REF| Numerically orthorhombic:                                         YES
 CELL_REF| Periodicity                                                       XYZ

 *** WARNING in cryssym.F:180 :: Symmetry library SPGLIB not available ***


 *******************************************************************************
                                    Kpoints
 *******************************************************************************
 BRILLOUIN| K-point scheme                                        Monkhorst-Pack
 BRILLOUIN| K-Point grid                                            12   12   12
 BRILLOUIN| Accuracy in Symmetry determination                      0.100000E-05
 BRILLOUIN| K-Point point group symmetrization                               OFF
 BRILLOUIN| Wavefunction type                                            COMPLEX
 BRILLOUIN| List of Kpoints [2 Pi/Bohr]                                      864
 BRILLOUIN| Number           Weight            X              Y              Z
 BRILLOUIN|     1           0.00116       -0.45833       -0.45833       -0.45833
 BRILLOUIN|     2           0.00116       -0.45833       -0.45833       -0.37500
 BRILLOUIN|     3           0.00116       -0.45833       -0.45833       -0.29167
 BRILLOUIN|     4           0.00116       -0.45833       -0.45833       -0.20833
 BRILLOUIN|     5           0.00116       -0.45833       -0.45833       -0.12500
 BRILLOUIN|     6           0.00116       -0.45833       -0.45833       -0.04167
 BRILLOUIN|     7           0.00116       -0.45833       -0.45833        0.04167
 BRILLOUIN|     8           0.00116       -0.45833       -0.45833        0.12500
 BRILLOUIN|     9           0.00116       -0.45833       -0.45833        0.20833
 BRILLOUIN|    10           0.00116       -0.45833       -0.45833        0.29167
 BRILLOUIN|    11           0.00116       -0.45833       -0.45833        0.37500
 BRILLOUIN|    12           0.00116       -0.45833       -0.45833        0.45833
 BRILLOUIN|    13           0.00116       -0.45833       -0.37500       -0.45833
 BRILLOUIN|    14           0.00116       -0.45833       -0.37500       -0.37500
 BRILLOUIN|    15           0.00116       -0.45833       -0.37500       -0.29167
 BRILLOUIN|    16           0.00116       -0.45833       -0.37500       -0.20833
 BRILLOUIN|    17           0.00116       -0.45833       -0.37500       -0.12500
 BRILLOUIN|    18           0.00116       -0.45833       -0.37500       -0.04167
 BRILLOUIN|    19           0.00116       -0.45833       -0.37500        0.04167
 BRILLOUIN|    20           0.00116       -0.45833       -0.37500        0.12500
 BRILLOUIN|    21           0.00116       -0.45833       -0.37500        0.20833
 BRILLOUIN|    22           0.00116       -0.45833       -0.37500        0.29167
 BRILLOUIN|    23           0.00116       -0.45833       -0.37500        0.37500
 BRILLOUIN|    24           0.00116       -0.45833       -0.37500        0.45833
 BRILLOUIN|    25           0.00116       -0.45833       -0.29167       -0.45833
 BRILLOUIN|    26           0.00116       -0.45833       -0.29167       -0.37500
 BRILLOUIN|    27           0.00116       -0.45833       -0.29167       -0.29167
 BRILLOUIN|    28           0.00116       -0.45833       -0.29167       -0.20833
 BRILLOUIN|    29           0.00116       -0.45833       -0.29167       -0.12500
 BRILLOUIN|    30           0.00116       -0.45833       -0.29167       -0.04167
 BRILLOUIN|    31           0.00116       -0.45833       -0.29167        0.04167
 BRILLOUIN|    32           0.00116       -0.45833       -0.29167        0.12500
 BRILLOUIN|    33           0.00116       -0.45833       -0.29167        0.20833
 BRILLOUIN|    34           0.00116       -0.45833       -0.29167        0.29167
 BRILLOUIN|    35           0.00116       -0.45833       -0.29167        0.37500
 BRILLOUIN|    36           0.00116       -0.45833       -0.29167        0.45833
 BRILLOUIN|    37           0.00116       -0.45833       -0.20833       -0.45833
 BRILLOUIN|    38           0.00116       -0.45833       -0.20833       -0.37500
 BRILLOUIN|    39           0.00116       -0.45833       -0.20833       -0.29167
 BRILLOUIN|    40           0.00116       -0.45833       -0.20833       -0.20833
 BRILLOUIN|    41           0.00116       -0.45833       -0.20833       -0.12500
 BRILLOUIN|    42           0.00116       -0.45833       -0.20833       -0.04167
 BRILLOUIN|    43           0.00116       -0.45833       -0.20833        0.04167
 BRILLOUIN|    44           0.00116       -0.45833       -0.20833        0.12500
 BRILLOUIN|    45           0.00116       -0.45833       -0.20833        0.20833
 BRILLOUIN|    46           0.00116       -0.45833       -0.20833        0.29167
 BRILLOUIN|    47           0.00116       -0.45833       -0.20833        0.37500
 BRILLOUIN|    48           0.00116       -0.45833       -0.20833        0.45833
 BRILLOUIN|    49           0.00116       -0.45833       -0.12500       -0.45833
 BRILLOUIN|    50           0.00116       -0.45833       -0.12500       -0.37500
 BRILLOUIN|    51           0.00116       -0.45833       -0.12500       -0.29167
 BRILLOUIN|    52           0.00116       -0.45833       -0.12500       -0.20833
 BRILLOUIN|    53           0.00116       -0.45833       -0.12500       -0.12500
 BRILLOUIN|    54           0.00116       -0.45833       -0.12500       -0.04167
 BRILLOUIN|    55           0.00116       -0.45833       -0.12500        0.04167
 BRILLOUIN|    56           0.00116       -0.45833       -0.12500        0.12500
 BRILLOUIN|    57           0.00116       -0.45833       -0.12500        0.20833
 BRILLOUIN|    58           0.00116       -0.45833       -0.12500        0.29167
 BRILLOUIN|    59           0.00116       -0.45833       -0.12500        0.37500
 BRILLOUIN|    60           0.00116       -0.45833       -0.12500        0.45833
 BRILLOUIN|    61           0.00116       -0.45833       -0.04167       -0.45833
 BRILLOUIN|    62           0.00116       -0.45833       -0.04167       -0.37500
 BRILLOUIN|    63           0.00116       -0.45833       -0.04167       -0.29167
 BRILLOUIN|    64           0.00116       -0.45833       -0.04167       -0.20833
 BRILLOUIN|    65           0.00116       -0.45833       -0.04167       -0.12500
 BRILLOUIN|    66           0.00116       -0.45833       -0.04167       -0.04167
 BRILLOUIN|    67           0.00116       -0.45833       -0.04167        0.04167
 BRILLOUIN|    68           0.00116       -0.45833       -0.04167        0.12500
 BRILLOUIN|    69           0.00116       -0.45833       -0.04167        0.20833
 BRILLOUIN|    70           0.00116       -0.45833       -0.04167        0.29167
 BRILLOUIN|    71           0.00116       -0.45833       -0.04167        0.37500
 BRILLOUIN|    72           0.00116       -0.45833       -0.04167        0.45833
 BRILLOUIN|    73           0.00116       -0.45833        0.04167       -0.45833
 BRILLOUIN|    74           0.00116       -0.45833        0.04167       -0.37500
 BRILLOUIN|    75           0.00116       -0.45833        0.04167       -0.29167
 BRILLOUIN|    76           0.00116       -0.45833        0.04167       -0.20833
 BRILLOUIN|    77           0.00116       -0.45833        0.04167       -0.12500
 BRILLOUIN|    78           0.00116       -0.45833        0.04167       -0.04167
 BRILLOUIN|    79           0.00116       -0.45833        0.04167        0.04167
 BRILLOUIN|    80           0.00116       -0.45833        0.04167        0.12500
 BRILLOUIN|    81           0.00116       -0.45833        0.04167        0.20833
 BRILLOUIN|    82           0.00116       -0.45833        0.04167        0.29167
 BRILLOUIN|    83           0.00116       -0.45833        0.04167        0.37500
 BRILLOUIN|    84           0.00116       -0.45833        0.04167        0.45833
 BRILLOUIN|    85           0.00116       -0.45833        0.12500       -0.45833
 BRILLOUIN|    86           0.00116       -0.45833        0.12500       -0.37500
 BRILLOUIN|    87           0.00116       -0.45833        0.12500       -0.29167
 BRILLOUIN|    88           0.00116       -0.45833        0.12500       -0.20833
 BRILLOUIN|    89           0.00116       -0.45833        0.12500       -0.12500
 BRILLOUIN|    90           0.00116       -0.45833        0.12500       -0.04167
 BRILLOUIN|    91           0.00116       -0.45833        0.12500        0.04167
 BRILLOUIN|    92           0.00116       -0.45833        0.12500        0.12500
 BRILLOUIN|    93           0.00116       -0.45833        0.12500        0.20833
 BRILLOUIN|    94           0.00116       -0.45833        0.12500        0.29167
 BRILLOUIN|    95           0.00116       -0.45833        0.12500        0.37500
 BRILLOUIN|    96           0.00116       -0.45833        0.12500        0.45833
 BRILLOUIN|    97           0.00116       -0.45833        0.20833       -0.45833
 BRILLOUIN|    98           0.00116       -0.45833        0.20833       -0.37500
 BRILLOUIN|    99           0.00116       -0.45833        0.20833       -0.29167
 BRILLOUIN|   100           0.00116       -0.45833        0.20833       -0.20833
 BRILLOUIN|   101           0.00116       -0.45833        0.20833       -0.12500
 BRILLOUIN|   102           0.00116       -0.45833        0.20833       -0.04167
 BRILLOUIN|   103           0.00116       -0.45833        0.20833        0.04167
 BRILLOUIN|   104           0.00116       -0.45833        0.20833        0.12500
 BRILLOUIN|   105           0.00116       -0.45833        0.20833        0.20833
 BRILLOUIN|   106           0.00116       -0.45833        0.20833        0.29167
 BRILLOUIN|   107           0.00116       -0.45833        0.20833        0.37500
 BRILLOUIN|   108           0.00116       -0.45833        0.20833        0.45833
 BRILLOUIN|   109           0.00116       -0.45833        0.29167       -0.45833
 BRILLOUIN|   110           0.00116       -0.45833        0.29167       -0.37500
 BRILLOUIN|   111           0.00116       -0.45833        0.29167       -0.29167
 BRILLOUIN|   112           0.00116       -0.45833        0.29167       -0.20833
 BRILLOUIN|   113           0.00116       -0.45833        0.29167       -0.12500
 BRILLOUIN|   114           0.00116       -0.45833        0.29167       -0.04167
 BRILLOUIN|   115           0.00116       -0.45833        0.29167        0.04167
 BRILLOUIN|   116           0.00116       -0.45833        0.29167        0.12500
 BRILLOUIN|   117           0.00116       -0.45833        0.29167        0.20833
 BRILLOUIN|   118           0.00116       -0.45833        0.29167        0.29167
 BRILLOUIN|   119           0.00116       -0.45833        0.29167        0.37500
 BRILLOUIN|   120           0.00116       -0.45833        0.29167        0.45833
 BRILLOUIN|   121           0.00116       -0.45833        0.37500       -0.45833
 BRILLOUIN|   122           0.00116       -0.45833        0.37500       -0.37500
 BRILLOUIN|   123           0.00116       -0.45833        0.37500       -0.29167
 BRILLOUIN|   124           0.00116       -0.45833        0.37500       -0.20833
 BRILLOUIN|   125           0.00116       -0.45833        0.37500       -0.12500
 BRILLOUIN|   126           0.00116       -0.45833        0.37500       -0.04167
 BRILLOUIN|   127           0.00116       -0.45833        0.37500        0.04167
 BRILLOUIN|   128           0.00116       -0.45833        0.37500        0.12500
 BRILLOUIN|   129           0.00116       -0.45833        0.37500        0.20833
 BRILLOUIN|   130           0.00116       -0.45833        0.37500        0.29167
 BRILLOUIN|   131           0.00116       -0.45833        0.37500        0.37500
 BRILLOUIN|   132           0.00116       -0.45833        0.37500        0.45833
 BRILLOUIN|   133           0.00116       -0.45833        0.45833       -0.45833
 BRILLOUIN|   134           0.00116       -0.45833        0.45833       -0.37500
 BRILLOUIN|   135           0.00116       -0.45833        0.45833       -0.29167
 BRILLOUIN|   136           0.00116       -0.45833        0.45833       -0.20833
 BRILLOUIN|   137           0.00116       -0.45833        0.45833       -0.12500
 BRILLOUIN|   138           0.00116       -0.45833        0.45833       -0.04167
 BRILLOUIN|   139           0.00116       -0.45833        0.45833        0.04167
 BRILLOUIN|   140           0.00116       -0.45833        0.45833        0.12500
 BRILLOUIN|   141           0.00116       -0.45833        0.45833        0.20833
 BRILLOUIN|   142           0.00116       -0.45833        0.45833        0.29167
 BRILLOUIN|   143           0.00116       -0.45833        0.45833        0.37500
 BRILLOUIN|   144           0.00116       -0.45833        0.45833        0.45833
 BRILLOUIN|   145           0.00116       -0.37500       -0.45833       -0.45833
 BRILLOUIN|   146           0.00116       -0.37500       -0.45833       -0.37500
 BRILLOUIN|   147           0.00116       -0.37500       -0.45833       -0.29167
 BRILLOUIN|   148           0.00116       -0.37500       -0.45833       -0.20833
 BRILLOUIN|   149           0.00116       -0.37500       -0.45833       -0.12500
 BRILLOUIN|   150           0.00116       -0.37500       -0.45833       -0.04167
 BRILLOUIN|   151           0.00116       -0.37500       -0.45833        0.04167
 BRILLOUIN|   152           0.00116       -0.37500       -0.45833        0.12500
 BRILLOUIN|   153           0.00116       -0.37500       -0.45833        0.20833
 BRILLOUIN|   154           0.00116       -0.37500       -0.45833        0.29167
 BRILLOUIN|   155           0.00116       -0.37500       -0.45833        0.37500
 BRILLOUIN|   156           0.00116       -0.37500       -0.45833        0.45833
 BRILLOUIN|   157           0.00116       -0.37500       -0.37500       -0.45833
 BRILLOUIN|   158           0.00116       -0.37500       -0.37500       -0.37500
 BRILLOUIN|   159           0.00116       -0.37500       -0.37500       -0.29167
 BRILLOUIN|   160           0.00116       -0.37500       -0.37500       -0.20833
 BRILLOUIN|   161           0.00116       -0.37500       -0.37500       -0.12500
 BRILLOUIN|   162           0.00116       -0.37500       -0.37500       -0.04167
 BRILLOUIN|   163           0.00116       -0.37500       -0.37500        0.04167
 BRILLOUIN|   164           0.00116       -0.37500       -0.37500        0.12500
 BRILLOUIN|   165           0.00116       -0.37500       -0.37500        0.20833
 BRILLOUIN|   166           0.00116       -0.37500       -0.37500        0.29167
 BRILLOUIN|   167           0.00116       -0.37500       -0.37500        0.37500
 BRILLOUIN|   168           0.00116       -0.37500       -0.37500        0.45833
 BRILLOUIN|   169           0.00116       -0.37500       -0.29167       -0.45833
 BRILLOUIN|   170           0.00116       -0.37500       -0.29167       -0.37500
 BRILLOUIN|   171           0.00116       -0.37500       -0.29167       -0.29167
 BRILLOUIN|   172           0.00116       -0.37500       -0.29167       -0.20833
 BRILLOUIN|   173           0.00116       -0.37500       -0.29167       -0.12500
 BRILLOUIN|   174           0.00116       -0.37500       -0.29167       -0.04167
 BRILLOUIN|   175           0.00116       -0.37500       -0.29167        0.04167
 BRILLOUIN|   176           0.00116       -0.37500       -0.29167        0.12500
 BRILLOUIN|   177           0.00116       -0.37500       -0.29167        0.20833
 BRILLOUIN|   178           0.00116       -0.37500       -0.29167        0.29167
 BRILLOUIN|   179           0.00116       -0.37500       -0.29167        0.37500
 BRILLOUIN|   180           0.00116       -0.37500       -0.29167        0.45833
 BRILLOUIN|   181           0.00116       -0.37500       -0.20833       -0.45833
 BRILLOUIN|   182           0.00116       -0.37500       -0.20833       -0.37500
 BRILLOUIN|   183           0.00116       -0.37500       -0.20833       -0.29167
 BRILLOUIN|   184           0.00116       -0.37500       -0.20833       -0.20833
 BRILLOUIN|   185           0.00116       -0.37500       -0.20833       -0.12500
 BRILLOUIN|   186           0.00116       -0.37500       -0.20833       -0.04167
 BRILLOUIN|   187           0.00116       -0.37500       -0.20833        0.04167
 BRILLOUIN|   188           0.00116       -0.37500       -0.20833        0.12500
 BRILLOUIN|   189           0.00116       -0.37500       -0.20833        0.20833
 BRILLOUIN|   190           0.00116       -0.37500       -0.20833        0.29167
 BRILLOUIN|   191           0.00116       -0.37500       -0.20833        0.37500
 BRILLOUIN|   192           0.00116       -0.37500       -0.20833        0.45833
 BRILLOUIN|   193           0.00116       -0.37500       -0.12500       -0.45833
 BRILLOUIN|   194           0.00116       -0.37500       -0.12500       -0.37500
 BRILLOUIN|   195           0.00116       -0.37500       -0.12500       -0.29167
 BRILLOUIN|   196           0.00116       -0.37500       -0.12500       -0.20833
 BRILLOUIN|   197           0.00116       -0.37500       -0.12500       -0.12500
 BRILLOUIN|   198           0.00116       -0.37500       -0.12500       -0.04167
 BRILLOUIN|   199           0.00116       -0.37500       -0.12500        0.04167
 BRILLOUIN|   200           0.00116       -0.37500       -0.12500        0.12500
 BRILLOUIN|   201           0.00116       -0.37500       -0.12500        0.20833
 BRILLOUIN|   202           0.00116       -0.37500       -0.12500        0.29167
 BRILLOUIN|   203           0.00116       -0.37500       -0.12500        0.37500
 BRILLOUIN|   204           0.00116       -0.37500       -0.12500        0.45833
 BRILLOUIN|   205           0.00116       -0.37500       -0.04167       -0.45833
 BRILLOUIN|   206           0.00116       -0.37500       -0.04167       -0.37500
 BRILLOUIN|   207           0.00116       -0.37500       -0.04167       -0.29167
 BRILLOUIN|   208           0.00116       -0.37500       -0.04167       -0.20833
 BRILLOUIN|   209           0.00116       -0.37500       -0.04167       -0.12500
 BRILLOUIN|   210           0.00116       -0.37500       -0.04167       -0.04167
 BRILLOUIN|   211           0.00116       -0.37500       -0.04167        0.04167
 BRILLOUIN|   212           0.00116       -0.37500       -0.04167        0.12500
 BRILLOUIN|   213           0.00116       -0.37500       -0.04167        0.20833
 BRILLOUIN|   214           0.00116       -0.37500       -0.04167        0.29167
 BRILLOUIN|   215           0.00116       -0.37500       -0.04167        0.37500
 BRILLOUIN|   216           0.00116       -0.37500       -0.04167        0.45833
 BRILLOUIN|   217           0.00116       -0.37500        0.04167       -0.45833
 BRILLOUIN|   218           0.00116       -0.37500        0.04167       -0.37500
 BRILLOUIN|   219           0.00116       -0.37500        0.04167       -0.29167
 BRILLOUIN|   220           0.00116       -0.37500        0.04167       -0.20833
 BRILLOUIN|   221           0.00116       -0.37500        0.04167       -0.12500
 BRILLOUIN|   222           0.00116       -0.37500        0.04167       -0.04167
 BRILLOUIN|   223           0.00116       -0.37500        0.04167        0.04167
 BRILLOUIN|   224           0.00116       -0.37500        0.04167        0.12500
 BRILLOUIN|   225           0.00116       -0.37500        0.04167        0.20833
 BRILLOUIN|   226           0.00116       -0.37500        0.04167        0.29167
 BRILLOUIN|   227           0.00116       -0.37500        0.04167        0.37500
 BRILLOUIN|   228           0.00116       -0.37500        0.04167        0.45833
 BRILLOUIN|   229           0.00116       -0.37500        0.12500       -0.45833
 BRILLOUIN|   230           0.00116       -0.37500        0.12500       -0.37500
 BRILLOUIN|   231           0.00116       -0.37500        0.12500       -0.29167
 BRILLOUIN|   232           0.00116       -0.37500        0.12500       -0.20833
 BRILLOUIN|   233           0.00116       -0.37500        0.12500       -0.12500
 BRILLOUIN|   234           0.00116       -0.37500        0.12500       -0.04167
 BRILLOUIN|   235           0.00116       -0.37500        0.12500        0.04167
 BRILLOUIN|   236           0.00116       -0.37500        0.12500        0.12500
 BRILLOUIN|   237           0.00116       -0.37500        0.12500        0.20833
 BRILLOUIN|   238           0.00116       -0.37500        0.12500        0.29167
 BRILLOUIN|   239           0.00116       -0.37500        0.12500        0.37500
 BRILLOUIN|   240           0.00116       -0.37500        0.12500        0.45833
 BRILLOUIN|   241           0.00116       -0.37500        0.20833       -0.45833
 BRILLOUIN|   242           0.00116       -0.37500        0.20833       -0.37500
 BRILLOUIN|   243           0.00116       -0.37500        0.20833       -0.29167
 BRILLOUIN|   244           0.00116       -0.37500        0.20833       -0.20833
 BRILLOUIN|   245           0.00116       -0.37500        0.20833       -0.12500
 BRILLOUIN|   246           0.00116       -0.37500        0.20833       -0.04167
 BRILLOUIN|   247           0.00116       -0.37500        0.20833        0.04167
 BRILLOUIN|   248           0.00116       -0.37500        0.20833        0.12500
 BRILLOUIN|   249           0.00116       -0.37500        0.20833        0.20833
 BRILLOUIN|   250           0.00116       -0.37500        0.20833        0.29167
 BRILLOUIN|   251           0.00116       -0.37500        0.20833        0.37500
 BRILLOUIN|   252           0.00116       -0.37500        0.20833        0.45833
 BRILLOUIN|   253           0.00116       -0.37500        0.29167       -0.45833
 BRILLOUIN|   254           0.00116       -0.37500        0.29167       -0.37500
 BRILLOUIN|   255           0.00116       -0.37500        0.29167       -0.29167
 BRILLOUIN|   256           0.00116       -0.37500        0.29167       -0.20833
 BRILLOUIN|   257           0.00116       -0.37500        0.29167       -0.12500
 BRILLOUIN|   258           0.00116       -0.37500        0.29167       -0.04167
 BRILLOUIN|   259           0.00116       -0.37500        0.29167        0.04167
 BRILLOUIN|   260           0.00116       -0.37500        0.29167        0.12500
 BRILLOUIN|   261           0.00116       -0.37500        0.29167        0.20833
 BRILLOUIN|   262           0.00116       -0.37500        0.29167        0.29167
 BRILLOUIN|   263           0.00116       -0.37500        0.29167        0.37500
 BRILLOUIN|   264           0.00116       -0.37500        0.29167        0.45833
 BRILLOUIN|   265           0.00116       -0.37500        0.37500       -0.45833
 BRILLOUIN|   266           0.00116       -0.37500        0.37500       -0.37500
 BRILLOUIN|   267           0.00116       -0.37500        0.37500       -0.29167
 BRILLOUIN|   268           0.00116       -0.37500        0.37500       -0.20833
 BRILLOUIN|   269           0.00116       -0.37500        0.37500       -0.12500
 BRILLOUIN|   270           0.00116       -0.37500        0.37500       -0.04167
 BRILLOUIN|   271           0.00116       -0.37500        0.37500        0.04167
 BRILLOUIN|   272           0.00116       -0.37500        0.37500        0.12500
 BRILLOUIN|   273           0.00116       -0.37500        0.37500        0.20833
 BRILLOUIN|   274           0.00116       -0.37500        0.37500        0.29167
 BRILLOUIN|   275           0.00116       -0.37500        0.37500        0.37500
 BRILLOUIN|   276           0.00116       -0.37500        0.37500        0.45833
 BRILLOUIN|   277           0.00116       -0.37500        0.45833       -0.45833
 BRILLOUIN|   278           0.00116       -0.37500        0.45833       -0.37500
 BRILLOUIN|   279           0.00116       -0.37500        0.45833       -0.29167
 BRILLOUIN|   280           0.00116       -0.37500        0.45833       -0.20833
 BRILLOUIN|   281           0.00116       -0.37500        0.45833       -0.12500
 BRILLOUIN|   282           0.00116       -0.37500        0.45833       -0.04167
 BRILLOUIN|   283           0.00116       -0.37500        0.45833        0.04167
 BRILLOUIN|   284           0.00116       -0.37500        0.45833        0.12500
 BRILLOUIN|   285           0.00116       -0.37500        0.45833        0.20833
 BRILLOUIN|   286           0.00116       -0.37500        0.45833        0.29167
 BRILLOUIN|   287           0.00116       -0.37500        0.45833        0.37500
 BRILLOUIN|   288           0.00116       -0.37500        0.45833        0.45833
 BRILLOUIN|   289           0.00116       -0.29167       -0.45833       -0.45833
 BRILLOUIN|   290           0.00116       -0.29167       -0.45833       -0.37500
 BRILLOUIN|   291           0.00116       -0.29167       -0.45833       -0.29167
 BRILLOUIN|   292           0.00116       -0.29167       -0.45833       -0.20833
 BRILLOUIN|   293           0.00116       -0.29167       -0.45833       -0.12500
 BRILLOUIN|   294           0.00116       -0.29167       -0.45833       -0.04167
 BRILLOUIN|   295           0.00116       -0.29167       -0.45833        0.04167
 BRILLOUIN|   296           0.00116       -0.29167       -0.45833        0.12500
 BRILLOUIN|   297           0.00116       -0.29167       -0.45833        0.20833
 BRILLOUIN|   298           0.00116       -0.29167       -0.45833        0.29167
 BRILLOUIN|   299           0.00116       -0.29167       -0.45833        0.37500
 BRILLOUIN|   300           0.00116       -0.29167       -0.45833        0.45833
 BRILLOUIN|   301           0.00116       -0.29167       -0.37500       -0.45833
 BRILLOUIN|   302           0.00116       -0.29167       -0.37500       -0.37500
 BRILLOUIN|   303           0.00116       -0.29167       -0.37500       -0.29167
 BRILLOUIN|   304           0.00116       -0.29167       -0.37500       -0.20833
 BRILLOUIN|   305           0.00116       -0.29167       -0.37500       -0.12500
 BRILLOUIN|   306           0.00116       -0.29167       -0.37500       -0.04167
 BRILLOUIN|   307           0.00116       -0.29167       -0.37500        0.04167
 BRILLOUIN|   308           0.00116       -0.29167       -0.37500        0.12500
 BRILLOUIN|   309           0.00116       -0.29167       -0.37500        0.20833
 BRILLOUIN|   310           0.00116       -0.29167       -0.37500        0.29167
 BRILLOUIN|   311           0.00116       -0.29167       -0.37500        0.37500
 BRILLOUIN|   312           0.00116       -0.29167       -0.37500        0.45833
 BRILLOUIN|   313           0.00116       -0.29167       -0.29167       -0.45833
 BRILLOUIN|   314           0.00116       -0.29167       -0.29167       -0.37500
 BRILLOUIN|   315           0.00116       -0.29167       -0.29167       -0.29167
 BRILLOUIN|   316           0.00116       -0.29167       -0.29167       -0.20833
 BRILLOUIN|   317           0.00116       -0.29167       -0.29167       -0.12500
 BRILLOUIN|   318           0.00116       -0.29167       -0.29167       -0.04167
 BRILLOUIN|   319           0.00116       -0.29167       -0.29167        0.04167
 BRILLOUIN|   320           0.00116       -0.29167       -0.29167        0.12500
 BRILLOUIN|   321           0.00116       -0.29167       -0.29167        0.20833
 BRILLOUIN|   322           0.00116       -0.29167       -0.29167        0.29167
 BRILLOUIN|   323           0.00116       -0.29167       -0.29167        0.37500
 BRILLOUIN|   324           0.00116       -0.29167       -0.29167        0.45833
 BRILLOUIN|   325           0.00116       -0.29167       -0.20833       -0.45833
 BRILLOUIN|   326           0.00116       -0.29167       -0.20833       -0.37500
 BRILLOUIN|   327           0.00116       -0.29167       -0.20833       -0.29167
 BRILLOUIN|   328           0.00116       -0.29167       -0.20833       -0.20833
 BRILLOUIN|   329           0.00116       -0.29167       -0.20833       -0.12500
 BRILLOUIN|   330           0.00116       -0.29167       -0.20833       -0.04167
 BRILLOUIN|   331           0.00116       -0.29167       -0.20833        0.04167
 BRILLOUIN|   332           0.00116       -0.29167       -0.20833        0.12500
 BRILLOUIN|   333           0.00116       -0.29167       -0.20833        0.20833
 BRILLOUIN|   334           0.00116       -0.29167       -0.20833        0.29167
 BRILLOUIN|   335           0.00116       -0.29167       -0.20833        0.37500
 BRILLOUIN|   336           0.00116       -0.29167       -0.20833        0.45833
 BRILLOUIN|   337           0.00116       -0.29167       -0.12500       -0.45833
 BRILLOUIN|   338           0.00116       -0.29167       -0.12500       -0.37500
 BRILLOUIN|   339           0.00116       -0.29167       -0.12500       -0.29167
 BRILLOUIN|   340           0.00116       -0.29167       -0.12500       -0.20833
 BRILLOUIN|   341           0.00116       -0.29167       -0.12500       -0.12500
 BRILLOUIN|   342           0.00116       -0.29167       -0.12500       -0.04167
 BRILLOUIN|   343           0.00116       -0.29167       -0.12500        0.04167
 BRILLOUIN|   344           0.00116       -0.29167       -0.12500        0.12500
 BRILLOUIN|   345           0.00116       -0.29167       -0.12500        0.20833
 BRILLOUIN|   346           0.00116       -0.29167       -0.12500        0.29167
 BRILLOUIN|   347           0.00116       -0.29167       -0.12500        0.37500
 BRILLOUIN|   348           0.00116       -0.29167       -0.12500        0.45833
 BRILLOUIN|   349           0.00116       -0.29167       -0.04167       -0.45833
 BRILLOUIN|   350           0.00116       -0.29167       -0.04167       -0.37500
 BRILLOUIN|   351           0.00116       -0.29167       -0.04167       -0.29167
 BRILLOUIN|   352           0.00116       -0.29167       -0.04167       -0.20833
 BRILLOUIN|   353           0.00116       -0.29167       -0.04167       -0.12500
 BRILLOUIN|   354           0.00116       -0.29167       -0.04167       -0.04167
 BRILLOUIN|   355           0.00116       -0.29167       -0.04167        0.04167
 BRILLOUIN|   356           0.00116       -0.29167       -0.04167        0.12500
 BRILLOUIN|   357           0.00116       -0.29167       -0.04167        0.20833
 BRILLOUIN|   358           0.00116       -0.29167       -0.04167        0.29167
 BRILLOUIN|   359           0.00116       -0.29167       -0.04167        0.37500
 BRILLOUIN|   360           0.00116       -0.29167       -0.04167        0.45833
 BRILLOUIN|   361           0.00116       -0.29167        0.04167       -0.45833
 BRILLOUIN|   362           0.00116       -0.29167        0.04167       -0.37500
 BRILLOUIN|   363           0.00116       -0.29167        0.04167       -0.29167
 BRILLOUIN|   364           0.00116       -0.29167        0.04167       -0.20833
 BRILLOUIN|   365           0.00116       -0.29167        0.04167       -0.12500
 BRILLOUIN|   366           0.00116       -0.29167        0.04167       -0.04167
 BRILLOUIN|   367           0.00116       -0.29167        0.04167        0.04167
 BRILLOUIN|   368           0.00116       -0.29167        0.04167        0.12500
 BRILLOUIN|   369           0.00116       -0.29167        0.04167        0.20833
 BRILLOUIN|   370           0.00116       -0.29167        0.04167        0.29167
 BRILLOUIN|   371           0.00116       -0.29167        0.04167        0.37500
 BRILLOUIN|   372           0.00116       -0.29167        0.04167        0.45833
 BRILLOUIN|   373           0.00116       -0.29167        0.12500       -0.45833
 BRILLOUIN|   374           0.00116       -0.29167        0.12500       -0.37500
 BRILLOUIN|   375           0.00116       -0.29167        0.12500       -0.29167
 BRILLOUIN|   376           0.00116       -0.29167        0.12500       -0.20833
 BRILLOUIN|   377           0.00116       -0.29167        0.12500       -0.12500
 BRILLOUIN|   378           0.00116       -0.29167        0.12500       -0.04167
 BRILLOUIN|   379           0.00116       -0.29167        0.12500        0.04167
 BRILLOUIN|   380           0.00116       -0.29167        0.12500        0.12500
 BRILLOUIN|   381           0.00116       -0.29167        0.12500        0.20833
 BRILLOUIN|   382           0.00116       -0.29167        0.12500        0.29167
 BRILLOUIN|   383           0.00116       -0.29167        0.12500        0.37500
 BRILLOUIN|   384           0.00116       -0.29167        0.12500        0.45833
 BRILLOUIN|   385           0.00116       -0.29167        0.20833       -0.45833
 BRILLOUIN|   386           0.00116       -0.29167        0.20833       -0.37500
 BRILLOUIN|   387           0.00116       -0.29167        0.20833       -0.29167
 BRILLOUIN|   388           0.00116       -0.29167        0.20833       -0.20833
 BRILLOUIN|   389           0.00116       -0.29167        0.20833       -0.12500
 BRILLOUIN|   390           0.00116       -0.29167        0.20833       -0.04167
 BRILLOUIN|   391           0.00116       -0.29167        0.20833        0.04167
 BRILLOUIN|   392           0.00116       -0.29167        0.20833        0.12500
 BRILLOUIN|   393           0.00116       -0.29167        0.20833        0.20833
 BRILLOUIN|   394           0.00116       -0.29167        0.20833        0.29167
 BRILLOUIN|   395           0.00116       -0.29167        0.20833        0.37500
 BRILLOUIN|   396           0.00116       -0.29167        0.20833        0.45833
 BRILLOUIN|   397           0.00116       -0.29167        0.29167       -0.45833
 BRILLOUIN|   398           0.00116       -0.29167        0.29167       -0.37500
 BRILLOUIN|   399           0.00116       -0.29167        0.29167       -0.29167
 BRILLOUIN|   400           0.00116       -0.29167        0.29167       -0.20833
 BRILLOUIN|   401           0.00116       -0.29167        0.29167       -0.12500
 BRILLOUIN|   402           0.00116       -0.29167        0.29167       -0.04167
 BRILLOUIN|   403           0.00116       -0.29167        0.29167        0.04167
 BRILLOUIN|   404           0.00116       -0.29167        0.29167        0.12500
 BRILLOUIN|   405           0.00116       -0.29167        0.29167        0.20833
 BRILLOUIN|   406           0.00116       -0.29167        0.29167        0.29167
 BRILLOUIN|   407           0.00116       -0.29167        0.29167        0.37500
 BRILLOUIN|   408           0.00116       -0.29167        0.29167        0.45833
 BRILLOUIN|   409           0.00116       -0.29167        0.37500       -0.45833
 BRILLOUIN|   410           0.00116       -0.29167        0.37500       -0.37500
 BRILLOUIN|   411           0.00116       -0.29167        0.37500       -0.29167
 BRILLOUIN|   412           0.00116       -0.29167        0.37500       -0.20833
 BRILLOUIN|   413           0.00116       -0.29167        0.37500       -0.12500
 BRILLOUIN|   414           0.00116       -0.29167        0.37500       -0.04167
 BRILLOUIN|   415           0.00116       -0.29167        0.37500        0.04167
 BRILLOUIN|   416           0.00116       -0.29167        0.37500        0.12500
 BRILLOUIN|   417           0.00116       -0.29167        0.37500        0.20833
 BRILLOUIN|   418           0.00116       -0.29167        0.37500        0.29167
 BRILLOUIN|   419           0.00116       -0.29167        0.37500        0.37500
 BRILLOUIN|   420           0.00116       -0.29167        0.37500        0.45833
 BRILLOUIN|   421           0.00116       -0.29167        0.45833       -0.45833
 BRILLOUIN|   422           0.00116       -0.29167        0.45833       -0.37500
 BRILLOUIN|   423           0.00116       -0.29167        0.45833       -0.29167
 BRILLOUIN|   424           0.00116       -0.29167        0.45833       -0.20833
 BRILLOUIN|   425           0.00116       -0.29167        0.45833       -0.12500
 BRILLOUIN|   426           0.00116       -0.29167        0.45833       -0.04167
 BRILLOUIN|   427           0.00116       -0.29167        0.45833        0.04167
 BRILLOUIN|   428           0.00116       -0.29167        0.45833        0.12500
 BRILLOUIN|   429           0.00116       -0.29167        0.45833        0.20833
 BRILLOUIN|   430           0.00116       -0.29167        0.45833        0.29167
 BRILLOUIN|   431           0.00116       -0.29167        0.45833        0.37500
 BRILLOUIN|   432           0.00116       -0.29167        0.45833        0.45833
 BRILLOUIN|   433           0.00116       -0.20833       -0.45833       -0.45833
 BRILLOUIN|   434           0.00116       -0.20833       -0.45833       -0.37500
 BRILLOUIN|   435           0.00116       -0.20833       -0.45833       -0.29167
 BRILLOUIN|   436           0.00116       -0.20833       -0.45833       -0.20833
 BRILLOUIN|   437           0.00116       -0.20833       -0.45833       -0.12500
 BRILLOUIN|   438           0.00116       -0.20833       -0.45833       -0.04167
 BRILLOUIN|   439           0.00116       -0.20833       -0.45833        0.04167
 BRILLOUIN|   440           0.00116       -0.20833       -0.45833        0.12500
 BRILLOUIN|   441           0.00116       -0.20833       -0.45833        0.20833
 BRILLOUIN|   442           0.00116       -0.20833       -0.45833        0.29167
 BRILLOUIN|   443           0.00116       -0.20833       -0.45833        0.37500
 BRILLOUIN|   444           0.00116       -0.20833       -0.45833        0.45833
 BRILLOUIN|   445           0.00116       -0.20833       -0.37500       -0.45833
 BRILLOUIN|   446           0.00116       -0.20833       -0.37500       -0.37500
 BRILLOUIN|   447           0.00116       -0.20833       -0.37500       -0.29167
 BRILLOUIN|   448           0.00116       -0.20833       -0.37500       -0.20833
 BRILLOUIN|   449           0.00116       -0.20833       -0.37500       -0.12500
 BRILLOUIN|   450           0.00116       -0.20833       -0.37500       -0.04167
 BRILLOUIN|   451           0.00116       -0.20833       -0.37500        0.04167
 BRILLOUIN|   452           0.00116       -0.20833       -0.37500        0.12500
 BRILLOUIN|   453           0.00116       -0.20833       -0.37500        0.20833
 BRILLOUIN|   454           0.00116       -0.20833       -0.37500        0.29167
 BRILLOUIN|   455           0.00116       -0.20833       -0.37500        0.37500
 BRILLOUIN|   456           0.00116       -0.20833       -0.37500        0.45833
 BRILLOUIN|   457           0.00116       -0.20833       -0.29167       -0.45833
 BRILLOUIN|   458           0.00116       -0.20833       -0.29167       -0.37500
 BRILLOUIN|   459           0.00116       -0.20833       -0.29167       -0.29167
 BRILLOUIN|   460           0.00116       -0.20833       -0.29167       -0.20833
 BRILLOUIN|   461           0.00116       -0.20833       -0.29167       -0.12500
 BRILLOUIN|   462           0.00116       -0.20833       -0.29167       -0.04167
 BRILLOUIN|   463           0.00116       -0.20833       -0.29167        0.04167
 BRILLOUIN|   464           0.00116       -0.20833       -0.29167        0.12500
 BRILLOUIN|   465           0.00116       -0.20833       -0.29167        0.20833
 BRILLOUIN|   466           0.00116       -0.20833       -0.29167        0.29167
 BRILLOUIN|   467           0.00116       -0.20833       -0.29167        0.37500
 BRILLOUIN|   468           0.00116       -0.20833       -0.29167        0.45833
 BRILLOUIN|   469           0.00116       -0.20833       -0.20833       -0.45833
 BRILLOUIN|   470           0.00116       -0.20833       -0.20833       -0.37500
 BRILLOUIN|   471           0.00116       -0.20833       -0.20833       -0.29167
 BRILLOUIN|   472           0.00116       -0.20833       -0.20833       -0.20833
 BRILLOUIN|   473           0.00116       -0.20833       -0.20833       -0.12500
 BRILLOUIN|   474           0.00116       -0.20833       -0.20833       -0.04167
 BRILLOUIN|   475           0.00116       -0.20833       -0.20833        0.04167
 BRILLOUIN|   476           0.00116       -0.20833       -0.20833        0.12500
 BRILLOUIN|   477           0.00116       -0.20833       -0.20833        0.20833
 BRILLOUIN|   478           0.00116       -0.20833       -0.20833        0.29167
 BRILLOUIN|   479           0.00116       -0.20833       -0.20833        0.37500
 BRILLOUIN|   480           0.00116       -0.20833       -0.20833        0.45833
 BRILLOUIN|   481           0.00116       -0.20833       -0.12500       -0.45833
 BRILLOUIN|   482           0.00116       -0.20833       -0.12500       -0.37500
 BRILLOUIN|   483           0.00116       -0.20833       -0.12500       -0.29167
 BRILLOUIN|   484           0.00116       -0.20833       -0.12500       -0.20833
 BRILLOUIN|   485           0.00116       -0.20833       -0.12500       -0.12500
 BRILLOUIN|   486           0.00116       -0.20833       -0.12500       -0.04167
 BRILLOUIN|   487           0.00116       -0.20833       -0.12500        0.04167
 BRILLOUIN|   488           0.00116       -0.20833       -0.12500        0.12500
 BRILLOUIN|   489           0.00116       -0.20833       -0.12500        0.20833
 BRILLOUIN|   490           0.00116       -0.20833       -0.12500        0.29167
 BRILLOUIN|   491           0.00116       -0.20833       -0.12500        0.37500
 BRILLOUIN|   492           0.00116       -0.20833       -0.12500        0.45833
 BRILLOUIN|   493           0.00116       -0.20833       -0.04167       -0.45833
 BRILLOUIN|   494           0.00116       -0.20833       -0.04167       -0.37500
 BRILLOUIN|   495           0.00116       -0.20833       -0.04167       -0.29167
 BRILLOUIN|   496           0.00116       -0.20833       -0.04167       -0.20833
 BRILLOUIN|   497           0.00116       -0.20833       -0.04167       -0.12500
 BRILLOUIN|   498           0.00116       -0.20833       -0.04167       -0.04167
 BRILLOUIN|   499           0.00116       -0.20833       -0.04167        0.04167
 BRILLOUIN|   500           0.00116       -0.20833       -0.04167        0.12500
 BRILLOUIN|   501           0.00116       -0.20833       -0.04167        0.20833
 BRILLOUIN|   502           0.00116       -0.20833       -0.04167        0.29167
 BRILLOUIN|   503           0.00116       -0.20833       -0.04167        0.37500
 BRILLOUIN|   504           0.00116       -0.20833       -0.04167        0.45833
 BRILLOUIN|   505           0.00116       -0.20833        0.04167       -0.45833
 BRILLOUIN|   506           0.00116       -0.20833        0.04167       -0.37500
 BRILLOUIN|   507           0.00116       -0.20833        0.04167       -0.29167
 BRILLOUIN|   508           0.00116       -0.20833        0.04167       -0.20833
 BRILLOUIN|   509           0.00116       -0.20833        0.04167       -0.12500
 BRILLOUIN|   510           0.00116       -0.20833        0.04167       -0.04167
 BRILLOUIN|   511           0.00116       -0.20833        0.04167        0.04167
 BRILLOUIN|   512           0.00116       -0.20833        0.04167        0.12500
 BRILLOUIN|   513           0.00116       -0.20833        0.04167        0.20833
 BRILLOUIN|   514           0.00116       -0.20833        0.04167        0.29167
 BRILLOUIN|   515           0.00116       -0.20833        0.04167        0.37500
 BRILLOUIN|   516           0.00116       -0.20833        0.04167        0.45833
 BRILLOUIN|   517           0.00116       -0.20833        0.12500       -0.45833
 BRILLOUIN|   518           0.00116       -0.20833        0.12500       -0.37500
 BRILLOUIN|   519           0.00116       -0.20833        0.12500       -0.29167
 BRILLOUIN|   520           0.00116       -0.20833        0.12500       -0.20833
 BRILLOUIN|   521           0.00116       -0.20833        0.12500       -0.12500
 BRILLOUIN|   522           0.00116       -0.20833        0.12500       -0.04167
 BRILLOUIN|   523           0.00116       -0.20833        0.12500        0.04167
 BRILLOUIN|   524           0.00116       -0.20833        0.12500        0.12500
 BRILLOUIN|   525           0.00116       -0.20833        0.12500        0.20833
 BRILLOUIN|   526           0.00116       -0.20833        0.12500        0.29167
 BRILLOUIN|   527           0.00116       -0.20833        0.12500        0.37500
 BRILLOUIN|   528           0.00116       -0.20833        0.12500        0.45833
 BRILLOUIN|   529           0.00116       -0.20833        0.20833       -0.45833
 BRILLOUIN|   530           0.00116       -0.20833        0.20833       -0.37500
 BRILLOUIN|   531           0.00116       -0.20833        0.20833       -0.29167
 BRILLOUIN|   532           0.00116       -0.20833        0.20833       -0.20833
 BRILLOUIN|   533           0.00116       -0.20833        0.20833       -0.12500
 BRILLOUIN|   534           0.00116       -0.20833        0.20833       -0.04167
 BRILLOUIN|   535           0.00116       -0.20833        0.20833        0.04167
 BRILLOUIN|   536           0.00116       -0.20833        0.20833        0.12500
 BRILLOUIN|   537           0.00116       -0.20833        0.20833        0.20833
 BRILLOUIN|   538           0.00116       -0.20833        0.20833        0.29167
 BRILLOUIN|   539           0.00116       -0.20833        0.20833        0.37500
 BRILLOUIN|   540           0.00116       -0.20833        0.20833        0.45833
 BRILLOUIN|   541           0.00116       -0.20833        0.29167       -0.45833
 BRILLOUIN|   542           0.00116       -0.20833        0.29167       -0.37500
 BRILLOUIN|   543           0.00116       -0.20833        0.29167       -0.29167
 BRILLOUIN|   544           0.00116       -0.20833        0.29167       -0.20833
 BRILLOUIN|   545           0.00116       -0.20833        0.29167       -0.12500
 BRILLOUIN|   546           0.00116       -0.20833        0.29167       -0.04167
 BRILLOUIN|   547           0.00116       -0.20833        0.29167        0.04167
 BRILLOUIN|   548           0.00116       -0.20833        0.29167        0.12500
 BRILLOUIN|   549           0.00116       -0.20833        0.29167        0.20833
 BRILLOUIN|   550           0.00116       -0.20833        0.29167        0.29167
 BRILLOUIN|   551           0.00116       -0.20833        0.29167        0.37500
 BRILLOUIN|   552           0.00116       -0.20833        0.29167        0.45833
 BRILLOUIN|   553           0.00116       -0.20833        0.37500       -0.45833
 BRILLOUIN|   554           0.00116       -0.20833        0.37500       -0.37500
 BRILLOUIN|   555           0.00116       -0.20833        0.37500       -0.29167
 BRILLOUIN|   556           0.00116       -0.20833        0.37500       -0.20833
 BRILLOUIN|   557           0.00116       -0.20833        0.37500       -0.12500
 BRILLOUIN|   558           0.00116       -0.20833        0.37500       -0.04167
 BRILLOUIN|   559           0.00116       -0.20833        0.37500        0.04167
 BRILLOUIN|   560           0.00116       -0.20833        0.37500        0.12500
 BRILLOUIN|   561           0.00116       -0.20833        0.37500        0.20833
 BRILLOUIN|   562           0.00116       -0.20833        0.37500        0.29167
 BRILLOUIN|   563           0.00116       -0.20833        0.37500        0.37500
 BRILLOUIN|   564           0.00116       -0.20833        0.37500        0.45833
 BRILLOUIN|   565           0.00116       -0.20833        0.45833       -0.45833
 BRILLOUIN|   566           0.00116       -0.20833        0.45833       -0.37500
 BRILLOUIN|   567           0.00116       -0.20833        0.45833       -0.29167
 BRILLOUIN|   568           0.00116       -0.20833        0.45833       -0.20833
 BRILLOUIN|   569           0.00116       -0.20833        0.45833       -0.12500
 BRILLOUIN|   570           0.00116       -0.20833        0.45833       -0.04167
 BRILLOUIN|   571           0.00116       -0.20833        0.45833        0.04167
 BRILLOUIN|   572           0.00116       -0.20833        0.45833        0.12500
 BRILLOUIN|   573           0.00116       -0.20833        0.45833        0.20833
 BRILLOUIN|   574           0.00116       -0.20833        0.45833        0.29167
 BRILLOUIN|   575           0.00116       -0.20833        0.45833        0.37500
 BRILLOUIN|   576           0.00116       -0.20833        0.45833        0.45833
 BRILLOUIN|   577           0.00116       -0.12500       -0.45833       -0.45833
 BRILLOUIN|   578           0.00116       -0.12500       -0.45833       -0.37500
 BRILLOUIN|   579           0.00116       -0.12500       -0.45833       -0.29167
 BRILLOUIN|   580           0.00116       -0.12500       -0.45833       -0.20833
 BRILLOUIN|   581           0.00116       -0.12500       -0.45833       -0.12500
 BRILLOUIN|   582           0.00116       -0.12500       -0.45833       -0.04167
 BRILLOUIN|   583           0.00116       -0.12500       -0.45833        0.04167
 BRILLOUIN|   584           0.00116       -0.12500       -0.45833        0.12500
 BRILLOUIN|   585           0.00116       -0.12500       -0.45833        0.20833
 BRILLOUIN|   586           0.00116       -0.12500       -0.45833        0.29167
 BRILLOUIN|   587           0.00116       -0.12500       -0.45833        0.37500
 BRILLOUIN|   588           0.00116       -0.12500       -0.45833        0.45833
 BRILLOUIN|   589           0.00116       -0.12500       -0.37500       -0.45833
 BRILLOUIN|   590           0.00116       -0.12500       -0.37500       -0.37500
 BRILLOUIN|   591           0.00116       -0.12500       -0.37500       -0.29167
 BRILLOUIN|   592           0.00116       -0.12500       -0.37500       -0.20833
 BRILLOUIN|   593           0.00116       -0.12500       -0.37500       -0.12500
 BRILLOUIN|   594           0.00116       -0.12500       -0.37500       -0.04167
 BRILLOUIN|   595           0.00116       -0.12500       -0.37500        0.04167
 BRILLOUIN|   596           0.00116       -0.12500       -0.37500        0.12500
 BRILLOUIN|   597           0.00116       -0.12500       -0.37500        0.20833
 BRILLOUIN|   598           0.00116       -0.12500       -0.37500        0.29167
 BRILLOUIN|   599           0.00116       -0.12500       -0.37500        0.37500
 BRILLOUIN|   600           0.00116       -0.12500       -0.37500        0.45833
 BRILLOUIN|   601           0.00116       -0.12500       -0.29167       -0.45833
 BRILLOUIN|   602           0.00116       -0.12500       -0.29167       -0.37500
 BRILLOUIN|   603           0.00116       -0.12500       -0.29167       -0.29167
 BRILLOUIN|   604           0.00116       -0.12500       -0.29167       -0.20833
 BRILLOUIN|   605           0.00116       -0.12500       -0.29167       -0.12500
 BRILLOUIN|   606           0.00116       -0.12500       -0.29167       -0.04167
 BRILLOUIN|   607           0.00116       -0.12500       -0.29167        0.04167
 BRILLOUIN|   608           0.00116       -0.12500       -0.29167        0.12500
 BRILLOUIN|   609           0.00116       -0.12500       -0.29167        0.20833
 BRILLOUIN|   610           0.00116       -0.12500       -0.29167        0.29167
 BRILLOUIN|   611           0.00116       -0.12500       -0.29167        0.37500
 BRILLOUIN|   612           0.00116       -0.12500       -0.29167        0.45833
 BRILLOUIN|   613           0.00116       -0.12500       -0.20833       -0.45833
 BRILLOUIN|   614           0.00116       -0.12500       -0.20833       -0.37500
 BRILLOUIN|   615           0.00116       -0.12500       -0.20833       -0.29167
 BRILLOUIN|   616           0.00116       -0.12500       -0.20833       -0.20833
 BRILLOUIN|   617           0.00116       -0.12500       -0.20833       -0.12500
 BRILLOUIN|   618           0.00116       -0.12500       -0.20833       -0.04167
 BRILLOUIN|   619           0.00116       -0.12500       -0.20833        0.04167
 BRILLOUIN|   620           0.00116       -0.12500       -0.20833        0.12500
 BRILLOUIN|   621           0.00116       -0.12500       -0.20833        0.20833
 BRILLOUIN|   622           0.00116       -0.12500       -0.20833        0.29167
 BRILLOUIN|   623           0.00116       -0.12500       -0.20833        0.37500
 BRILLOUIN|   624           0.00116       -0.12500       -0.20833        0.45833
 BRILLOUIN|   625           0.00116       -0.12500       -0.12500       -0.45833
 BRILLOUIN|   626           0.00116       -0.12500       -0.12500       -0.37500
 BRILLOUIN|   627           0.00116       -0.12500       -0.12500       -0.29167
 BRILLOUIN|   628           0.00116       -0.12500       -0.12500       -0.20833
 BRILLOUIN|   629           0.00116       -0.12500       -0.12500       -0.12500
 BRILLOUIN|   630           0.00116       -0.12500       -0.12500       -0.04167
 BRILLOUIN|   631           0.00116       -0.12500       -0.12500        0.04167
 BRILLOUIN|   632           0.00116       -0.12500       -0.12500        0.12500
 BRILLOUIN|   633           0.00116       -0.12500       -0.12500        0.20833
 BRILLOUIN|   634           0.00116       -0.12500       -0.12500        0.29167
 BRILLOUIN|   635           0.00116       -0.12500       -0.12500        0.37500
 BRILLOUIN|   636           0.00116       -0.12500       -0.12500        0.45833
 BRILLOUIN|   637           0.00116       -0.12500       -0.04167       -0.45833
 BRILLOUIN|   638           0.00116       -0.12500       -0.04167       -0.37500
 BRILLOUIN|   639           0.00116       -0.12500       -0.04167       -0.29167
 BRILLOUIN|   640           0.00116       -0.12500       -0.04167       -0.20833
 BRILLOUIN|   641           0.00116       -0.12500       -0.04167       -0.12500
 BRILLOUIN|   642           0.00116       -0.12500       -0.04167       -0.04167
 BRILLOUIN|   643           0.00116       -0.12500       -0.04167        0.04167
 BRILLOUIN|   644           0.00116       -0.12500       -0.04167        0.12500
 BRILLOUIN|   645           0.00116       -0.12500       -0.04167        0.20833
 BRILLOUIN|   646           0.00116       -0.12500       -0.04167        0.29167
 BRILLOUIN|   647           0.00116       -0.12500       -0.04167        0.37500
 BRILLOUIN|   648           0.00116       -0.12500       -0.04167        0.45833
 BRILLOUIN|   649           0.00116       -0.12500        0.04167       -0.45833
 BRILLOUIN|   650           0.00116       -0.12500        0.04167       -0.37500
 BRILLOUIN|   651           0.00116       -0.12500        0.04167       -0.29167
 BRILLOUIN|   652           0.00116       -0.12500        0.04167       -0.20833
 BRILLOUIN|   653           0.00116       -0.12500        0.04167       -0.12500
 BRILLOUIN|   654           0.00116       -0.12500        0.04167       -0.04167
 BRILLOUIN|   655           0.00116       -0.12500        0.04167        0.04167
 BRILLOUIN|   656           0.00116       -0.12500        0.04167        0.12500
 BRILLOUIN|   657           0.00116       -0.12500        0.04167        0.20833
 BRILLOUIN|   658           0.00116       -0.12500        0.04167        0.29167
 BRILLOUIN|   659           0.00116       -0.12500        0.04167        0.37500
 BRILLOUIN|   660           0.00116       -0.12500        0.04167        0.45833
 BRILLOUIN|   661           0.00116       -0.12500        0.12500       -0.45833
 BRILLOUIN|   662           0.00116       -0.12500        0.12500       -0.37500
 BRILLOUIN|   663           0.00116       -0.12500        0.12500       -0.29167
 BRILLOUIN|   664           0.00116       -0.12500        0.12500       -0.20833
 BRILLOUIN|   665           0.00116       -0.12500        0.12500       -0.12500
 BRILLOUIN|   666           0.00116       -0.12500        0.12500       -0.04167
 BRILLOUIN|   667           0.00116       -0.12500        0.12500        0.04167
 BRILLOUIN|   668           0.00116       -0.12500        0.12500        0.12500
 BRILLOUIN|   669           0.00116       -0.12500        0.12500        0.20833
 BRILLOUIN|   670           0.00116       -0.12500        0.12500        0.29167
 BRILLOUIN|   671           0.00116       -0.12500        0.12500        0.37500
 BRILLOUIN|   672           0.00116       -0.12500        0.12500        0.45833
 BRILLOUIN|   673           0.00116       -0.12500        0.20833       -0.45833
 BRILLOUIN|   674           0.00116       -0.12500        0.20833       -0.37500
 BRILLOUIN|   675           0.00116       -0.12500        0.20833       -0.29167
 BRILLOUIN|   676           0.00116       -0.12500        0.20833       -0.20833
 BRILLOUIN|   677           0.00116       -0.12500        0.20833       -0.12500
 BRILLOUIN|   678           0.00116       -0.12500        0.20833       -0.04167
 BRILLOUIN|   679           0.00116       -0.12500        0.20833        0.04167
 BRILLOUIN|   680           0.00116       -0.12500        0.20833        0.12500
 BRILLOUIN|   681           0.00116       -0.12500        0.20833        0.20833
 BRILLOUIN|   682           0.00116       -0.12500        0.20833        0.29167
 BRILLOUIN|   683           0.00116       -0.12500        0.20833        0.37500
 BRILLOUIN|   684           0.00116       -0.12500        0.20833        0.45833
 BRILLOUIN|   685           0.00116       -0.12500        0.29167       -0.45833
 BRILLOUIN|   686           0.00116       -0.12500        0.29167       -0.37500
 BRILLOUIN|   687           0.00116       -0.12500        0.29167       -0.29167
 BRILLOUIN|   688           0.00116       -0.12500        0.29167       -0.20833
 BRILLOUIN|   689           0.00116       -0.12500        0.29167       -0.12500
 BRILLOUIN|   690           0.00116       -0.12500        0.29167       -0.04167
 BRILLOUIN|   691           0.00116       -0.12500        0.29167        0.04167
 BRILLOUIN|   692           0.00116       -0.12500        0.29167        0.12500
 BRILLOUIN|   693           0.00116       -0.12500        0.29167        0.20833
 BRILLOUIN|   694           0.00116       -0.12500        0.29167        0.29167
 BRILLOUIN|   695           0.00116       -0.12500        0.29167        0.37500
 BRILLOUIN|   696           0.00116       -0.12500        0.29167        0.45833
 BRILLOUIN|   697           0.00116       -0.12500        0.37500       -0.45833
 BRILLOUIN|   698           0.00116       -0.12500        0.37500       -0.37500
 BRILLOUIN|   699           0.00116       -0.12500        0.37500       -0.29167
 BRILLOUIN|   700           0.00116       -0.12500        0.37500       -0.20833
 BRILLOUIN|   701           0.00116       -0.12500        0.37500       -0.12500
 BRILLOUIN|   702           0.00116       -0.12500        0.37500       -0.04167
 BRILLOUIN|   703           0.00116       -0.12500        0.37500        0.04167
 BRILLOUIN|   704           0.00116       -0.12500        0.37500        0.12500
 BRILLOUIN|   705           0.00116       -0.12500        0.37500        0.20833
 BRILLOUIN|   706           0.00116       -0.12500        0.37500        0.29167
 BRILLOUIN|   707           0.00116       -0.12500        0.37500        0.37500
 BRILLOUIN|   708           0.00116       -0.12500        0.37500        0.45833
 BRILLOUIN|   709           0.00116       -0.12500        0.45833       -0.45833
 BRILLOUIN|   710           0.00116       -0.12500        0.45833       -0.37500
 BRILLOUIN|   711           0.00116       -0.12500        0.45833       -0.29167
 BRILLOUIN|   712           0.00116       -0.12500        0.45833       -0.20833
 BRILLOUIN|   713           0.00116       -0.12500        0.45833       -0.12500
 BRILLOUIN|   714           0.00116       -0.12500        0.45833       -0.04167
 BRILLOUIN|   715           0.00116       -0.12500        0.45833        0.04167
 BRILLOUIN|   716           0.00116       -0.12500        0.45833        0.12500
 BRILLOUIN|   717           0.00116       -0.12500        0.45833        0.20833
 BRILLOUIN|   718           0.00116       -0.12500        0.45833        0.29167
 BRILLOUIN|   719           0.00116       -0.12500        0.45833        0.37500
 BRILLOUIN|   720           0.00116       -0.12500        0.45833        0.45833
 BRILLOUIN|   721           0.00116       -0.04167       -0.45833       -0.45833
 BRILLOUIN|   722           0.00116       -0.04167       -0.45833       -0.37500
 BRILLOUIN|   723           0.00116       -0.04167       -0.45833       -0.29167
 BRILLOUIN|   724           0.00116       -0.04167       -0.45833       -0.20833
 BRILLOUIN|   725           0.00116       -0.04167       -0.45833       -0.12500
 BRILLOUIN|   726           0.00116       -0.04167       -0.45833       -0.04167
 BRILLOUIN|   727           0.00116       -0.04167       -0.45833        0.04167
 BRILLOUIN|   728           0.00116       -0.04167       -0.45833        0.12500
 BRILLOUIN|   729           0.00116       -0.04167       -0.45833        0.20833
 BRILLOUIN|   730           0.00116       -0.04167       -0.45833        0.29167
 BRILLOUIN|   731           0.00116       -0.04167       -0.45833        0.37500
 BRILLOUIN|   732           0.00116       -0.04167       -0.45833        0.45833
 BRILLOUIN|   733           0.00116       -0.04167       -0.37500       -0.45833
 BRILLOUIN|   734           0.00116       -0.04167       -0.37500       -0.37500
 BRILLOUIN|   735           0.00116       -0.04167       -0.37500       -0.29167
 BRILLOUIN|   736           0.00116       -0.04167       -0.37500       -0.20833
 BRILLOUIN|   737           0.00116       -0.04167       -0.37500       -0.12500
 BRILLOUIN|   738           0.00116       -0.04167       -0.37500       -0.04167
 BRILLOUIN|   739           0.00116       -0.04167       -0.37500        0.04167
 BRILLOUIN|   740           0.00116       -0.04167       -0.37500        0.12500
 BRILLOUIN|   741           0.00116       -0.04167       -0.37500        0.20833
 BRILLOUIN|   742           0.00116       -0.04167       -0.37500        0.29167
 BRILLOUIN|   743           0.00116       -0.04167       -0.37500        0.37500
 BRILLOUIN|   744           0.00116       -0.04167       -0.37500        0.45833
 BRILLOUIN|   745           0.00116       -0.04167       -0.29167       -0.45833
 BRILLOUIN|   746           0.00116       -0.04167       -0.29167       -0.37500
 BRILLOUIN|   747           0.00116       -0.04167       -0.29167       -0.29167
 BRILLOUIN|   748           0.00116       -0.04167       -0.29167       -0.20833
 BRILLOUIN|   749           0.00116       -0.04167       -0.29167       -0.12500
 BRILLOUIN|   750           0.00116       -0.04167       -0.29167       -0.04167
 BRILLOUIN|   751           0.00116       -0.04167       -0.29167        0.04167
 BRILLOUIN|   752           0.00116       -0.04167       -0.29167        0.12500
 BRILLOUIN|   753           0.00116       -0.04167       -0.29167        0.20833
 BRILLOUIN|   754           0.00116       -0.04167       -0.29167        0.29167
 BRILLOUIN|   755           0.00116       -0.04167       -0.29167        0.37500
 BRILLOUIN|   756           0.00116       -0.04167       -0.29167        0.45833
 BRILLOUIN|   757           0.00116       -0.04167       -0.20833       -0.45833
 BRILLOUIN|   758           0.00116       -0.04167       -0.20833       -0.37500
 BRILLOUIN|   759           0.00116       -0.04167       -0.20833       -0.29167
 BRILLOUIN|   760           0.00116       -0.04167       -0.20833       -0.20833
 BRILLOUIN|   761           0.00116       -0.04167       -0.20833       -0.12500
 BRILLOUIN|   762           0.00116       -0.04167       -0.20833       -0.04167
 BRILLOUIN|   763           0.00116       -0.04167       -0.20833        0.04167
 BRILLOUIN|   764           0.00116       -0.04167       -0.20833        0.12500
 BRILLOUIN|   765           0.00116       -0.04167       -0.20833        0.20833
 BRILLOUIN|   766           0.00116       -0.04167       -0.20833        0.29167
 BRILLOUIN|   767           0.00116       -0.04167       -0.20833        0.37500
 BRILLOUIN|   768           0.00116       -0.04167       -0.20833        0.45833
 BRILLOUIN|   769           0.00116       -0.04167       -0.12500       -0.45833
 BRILLOUIN|   770           0.00116       -0.04167       -0.12500       -0.37500
 BRILLOUIN|   771           0.00116       -0.04167       -0.12500       -0.29167
 BRILLOUIN|   772           0.00116       -0.04167       -0.12500       -0.20833
 BRILLOUIN|   773           0.00116       -0.04167       -0.12500       -0.12500
 BRILLOUIN|   774           0.00116       -0.04167       -0.12500       -0.04167
 BRILLOUIN|   775           0.00116       -0.04167       -0.12500        0.04167
 BRILLOUIN|   776           0.00116       -0.04167       -0.12500        0.12500
 BRILLOUIN|   777           0.00116       -0.04167       -0.12500        0.20833
 BRILLOUIN|   778           0.00116       -0.04167       -0.12500        0.29167
 BRILLOUIN|   779           0.00116       -0.04167       -0.12500        0.37500
 BRILLOUIN|   780           0.00116       -0.04167       -0.12500        0.45833
 BRILLOUIN|   781           0.00116       -0.04167       -0.04167       -0.45833
 BRILLOUIN|   782           0.00116       -0.04167       -0.04167       -0.37500
 BRILLOUIN|   783           0.00116       -0.04167       -0.04167       -0.29167
 BRILLOUIN|   784           0.00116       -0.04167       -0.04167       -0.20833
 BRILLOUIN|   785           0.00116       -0.04167       -0.04167       -0.12500
 BRILLOUIN|   786           0.00116       -0.04167       -0.04167       -0.04167
 BRILLOUIN|   787           0.00116       -0.04167       -0.04167        0.04167
 BRILLOUIN|   788           0.00116       -0.04167       -0.04167        0.12500
 BRILLOUIN|   789           0.00116       -0.04167       -0.04167        0.20833
 BRILLOUIN|   790           0.00116       -0.04167       -0.04167        0.29167
 BRILLOUIN|   791           0.00116       -0.04167       -0.04167        0.37500
 BRILLOUIN|   792           0.00116       -0.04167       -0.04167        0.45833
 BRILLOUIN|   793           0.00116       -0.04167        0.04167       -0.45833
 BRILLOUIN|   794           0.00116       -0.04167        0.04167       -0.37500
 BRILLOUIN|   795           0.00116       -0.04167        0.04167       -0.29167
 BRILLOUIN|   796           0.00116       -0.04167        0.04167       -0.20833
 BRILLOUIN|   797           0.00116       -0.04167        0.04167       -0.12500
 BRILLOUIN|   798           0.00116       -0.04167        0.04167       -0.04167
 BRILLOUIN|   799           0.00116       -0.04167        0.04167        0.04167
 BRILLOUIN|   800           0.00116       -0.04167        0.04167        0.12500
 BRILLOUIN|   801           0.00116       -0.04167        0.04167        0.20833
 BRILLOUIN|   802           0.00116       -0.04167        0.04167        0.29167
 BRILLOUIN|   803           0.00116       -0.04167        0.04167        0.37500
 BRILLOUIN|   804           0.00116       -0.04167        0.04167        0.45833
 BRILLOUIN|   805           0.00116       -0.04167        0.12500       -0.45833
 BRILLOUIN|   806           0.00116       -0.04167        0.12500       -0.37500
 BRILLOUIN|   807           0.00116       -0.04167        0.12500       -0.29167
 BRILLOUIN|   808           0.00116       -0.04167        0.12500       -0.20833
 BRILLOUIN|   809           0.00116       -0.04167        0.12500       -0.12500
 BRILLOUIN|   810           0.00116       -0.04167        0.12500       -0.04167
 BRILLOUIN|   811           0.00116       -0.04167        0.12500        0.04167
 BRILLOUIN|   812           0.00116       -0.04167        0.12500        0.12500
 BRILLOUIN|   813           0.00116       -0.04167        0.12500        0.20833
 BRILLOUIN|   814           0.00116       -0.04167        0.12500        0.29167
 BRILLOUIN|   815           0.00116       -0.04167        0.12500        0.37500
 BRILLOUIN|   816           0.00116       -0.04167        0.12500        0.45833
 BRILLOUIN|   817           0.00116       -0.04167        0.20833       -0.45833
 BRILLOUIN|   818           0.00116       -0.04167        0.20833       -0.37500
 BRILLOUIN|   819           0.00116       -0.04167        0.20833       -0.29167
 BRILLOUIN|   820           0.00116       -0.04167        0.20833       -0.20833
 BRILLOUIN|   821           0.00116       -0.04167        0.20833       -0.12500
 BRILLOUIN|   822           0.00116       -0.04167        0.20833       -0.04167
 BRILLOUIN|   823           0.00116       -0.04167        0.20833        0.04167
 BRILLOUIN|   824           0.00116       -0.04167        0.20833        0.12500
 BRILLOUIN|   825           0.00116       -0.04167        0.20833        0.20833
 BRILLOUIN|   826           0.00116       -0.04167        0.20833        0.29167
 BRILLOUIN|   827           0.00116       -0.04167        0.20833        0.37500
 BRILLOUIN|   828           0.00116       -0.04167        0.20833        0.45833
 BRILLOUIN|   829           0.00116       -0.04167        0.29167       -0.45833
 BRILLOUIN|   830           0.00116       -0.04167        0.29167       -0.37500
 BRILLOUIN|   831           0.00116       -0.04167        0.29167       -0.29167
 BRILLOUIN|   832           0.00116       -0.04167        0.29167       -0.20833
 BRILLOUIN|   833           0.00116       -0.04167        0.29167       -0.12500
 BRILLOUIN|   834           0.00116       -0.04167        0.29167       -0.04167
 BRILLOUIN|   835           0.00116       -0.04167        0.29167        0.04167
 BRILLOUIN|   836           0.00116       -0.04167        0.29167        0.12500
[...]
 count for grid        3:          18972          cutoff [a.u.]           55.56
 count for grid        4:          25292          cutoff [a.u.]           18.52
 total gridlevel count  :          53688

 -------------------------------------------------------------------------------
 -                                                                             -
 -                         MESSAGE PASSING PERFORMANCE                         -
 -                                                                             -
 -------------------------------------------------------------------------------

 ROUTINE             CALLS      AVE VOLUME [Bytes]
 MP_Group                6
 MP_Bcast          1154612                    443.
 MP_Allreduce        51360                    276.
 MP_Sync                 4
 MP_Alltoall           671               13690416.
 MP_SendRecv          1078                 799049.
 MP_ISendRecv         1043                 788370.
 MP_Wait            794767
 MP_comm_split           4
 MP_ISend           842564                    629.
 MP_IRecv          1347392                    396.
 -------------------------------------------------------------------------------


 -------------------------------------------------------------------------------
 -                                                                             -
 -                           R E F E R E N C E S                               -
 -                                                                             -
 -------------------------------------------------------------------------------
 
 CP2K version 2025.1 (Development Version), the CP2K developers group (2025).
 CP2K is freely available from https://www.cp2k.org/ .
 
 T. D. Kuehne, M. Iannuzzi, M. Del Ben, V. V. Rybkin, P. Seewald, F. Stein, T. 
 Laino, R. Z. Khaliullin, O. Schuett, F. Schiffmann, D. Golze, J. Wilhelm, S. 
 Chulkov, M. H. Bani-Hashemian, V. Weber, U. Borstnik, M. Taillefumier, A. S. 
 Jakobovits, A. Lazzaro, H. Pabst, T. Mueller, R. Schade, M. Guidon, S. 
 Andermatt, N. Holmberg, G. K. Schenter, A. Hehn, A. Bussy, F. Belleflamme, G. 
 Tabacchi, A. Gloess, M. Lass, I. Bethune, C. J. Mundy, C. Plessl, M. Watkins, 
 J. VandeVondele, M. Krack, J. Hutter.
 J. Chem. Phys. 152, 194103 (2020).
 CP2K: An electronic structure and molecular dynamics software package - 
 Quickstep: Efficient and accurate electronic structure calculations.
 https://doi.org/10.1063/5.0007045

 O. Schuett, P. Messmer, J. Hutter, J. VandeVondele.
 Electronic Structure Calculations on Graphics Processing Units, 173-190 (2016).
 GPU-Accelerated Sparse Matrix-Matrix Multiplication for Linear Scaling Density 
 Functional Theory.
 https://doi.org/10.1002/9781118670712.ch8

 J. Hutter, M. Iannuzzi, F. Schiffmann, J. VandeVondele.
 WIREs Comput Mol Sci. 4, 15-25 (2014).
 CP2K: atomistic simulations of condensed matter systems.
 https://doi.org/10.1002/wcms.1159

 U. Borstnik, J. VandeVondele, V. Weber, J. Hutter.
 Parallel Comput. 40, 47-58 (2014).
 Sparse matrix multiplication: The distributed block-compressed sparse row 
 library.
 https://doi.org/10.1016/j.parco.2014.03.012

 J. VandeVondele, J. Hutter.
 J. Chem. Phys. 127, 114105 (2007).
 Gaussian basis sets for accurate calculations on molecular systems in gas and 
 condensed phases.
 https://doi.org/10.1063/1.2770708

 J. VandeVondele, M. Krack, F. Mohamed, M. Parrinello, T. Chassaing, J. Hutter.
 Comput. Phys. Commun. 167, 103-128 (2005).
 QUICKSTEP: Fast and accurate density functional calculations using a mixed 
 Gaussian and plane waves approach.
 https://doi.org/10.1016/j.cpc.2004.12.014

 M. Krack.
 Theor. Chem. Acc. 114, 145-152 (2005).
 Pseudopotentials for H to Kr optimized for gradient-corrected 
 exchange-correlation functionals.
 https://doi.org/10.1007/s00214-005-0655-y

 M. Frigo, S. G. Johnson.
 Proc. IEEE 93, 216-231 (2005).
 The design and implementation of FFTW3.
 https://doi.org/10.1109/JPROC.2004.840301

 C. Hartwigsen, S. Goedecker, J. Hutter.
 Phys. Rev. B 58, 3641-3662 (1998).
 Relativistic separable dual-space Gaussian pseudopotentials from H to Rn.
 https://doi.org/10.1103/PhysRevB.58.3641

 G. Lippert, J. Hutter, M. Parrinello.
 Mol. Phys. 92, 477-487 (1997).
 A hybrid Gaussian and plane wave density functional scheme.
 https://doi.org/10.1080/002689797170220

 S. Goedecker, M. Teter, J. Hutter.
 Phys. Rev. B 54, 1703-1710 (1996).
 Separable dual-space Gaussian pseudopotentials.
 https://doi.org/10.1103/PhysRevB.54.1703

 J. P. Perdew, K. Burke, M. Ernzerhof.
 Phys. Rev. Lett. 77, 3865-3868 (1996).
 Generalized gradient approximation made simple.
 https://doi.org/10.1103/PhysRevLett.77.3865


 -------------------------------------------------------------------------------
 -                                                                             -
 -                                T I M I N G                                  -
 -                                                                             -
 -------------------------------------------------------------------------------
 SUBROUTINE                       CALLS  ASD         SELF TIME        TOTAL TIME
                                MAXIMUM       AVERAGE  MAXIMUM  AVERAGE  MAXIMUM
 CP2K                                 1  1.0    0.012    0.019  201.955  201.956
 qs_energies                          1  2.0    0.016    0.114  201.605  201.661
 scf_env_do_scf                       1  3.0    0.000    0.000  200.378  200.378
 scf_env_do_scf_inner_loop           37  4.0    0.016    0.018  200.378  200.378
 do_general_diag_kp                  38  5.9    0.709    0.725  189.097  189.418
 qs_scf_new_mos_kp                   37  5.0    0.000    0.000  188.389  188.713
 dbcsr_complete_redistribute     193304  8.3    6.286    6.436   64.349   68.336
 copy_dbcsr_to_fm                129368  7.0    1.347    1.403   60.549   61.166
 dbcsr_desymmetrize_deep         257832  7.5    3.960    4.085   45.034   52.602
 rskp_transform                   64232  7.0   30.613   49.615   30.613   49.615
 kpoint_density_transform            37  7.0    0.233    0.252   48.322   48.332
 mp_alltoall_i22                 451136  8.8   35.951   47.412   35.951   47.412
 copy_fm_to_dbcsr                 63936  8.0    0.382    0.395   27.111   30.617
 transform_dmat                   31968  8.0   14.548   23.988   14.548   23.988
 dbcsr_finalize                  458816  8.8    2.209    2.320   15.948   16.893
 cp_fm_start_copy_general        192400  7.3    2.671    3.908   15.977   16.194
 mp_alltoall_d11v               1353408  9.4   12.075   12.621   12.075   12.621
 mp_cart_sub                     258738  9.0   10.229   10.252   10.229   10.252
 dbcsr_merge_all                 193304 10.3    5.202    6.106    9.023    9.901
 mp_alltoall_i11v                837744  9.1    7.909    8.158    7.909    8.158
 hybrid_alltoall_any             257832  8.5    1.039    1.061    7.597    7.774
 mp_allgather_i                  384800  8.3    6.581    7.122    6.581    7.122
 qs_ks_update_qs_env                 37  5.0    0.000    0.000    5.543    6.278
 mp_cart_create                  129375  9.0    5.915    6.030    5.915    6.030
 rebuild_ks_matrix                   37  6.0    0.000    0.000    5.104    5.840
 qs_ks_build_kohn_sham_matrix        37  7.0    0.030    0.031    5.104    5.840
 mp_bcast_iv                     769626  8.3    4.515    5.112    4.515    5.112
 dbcsr_work_create               451136  8.8    2.613    2.681    4.456    4.534
 dbcsr_create_new                681315  8.4    3.152    3.330    3.759    3.943
 qs_rho_update_rho_low               38  5.0    0.000    0.000    3.582    3.598
 calculate_rho_elec                  38  6.0    0.085    0.088    3.582    3.598
 cp_cfm_geeig                      4033  7.0    0.024    0.025    3.568    3.598
 dbcsr_work_destroy_all          451136  9.8    2.127    2.168    3.181    3.237
 tree_to_linear_d                193304 11.3    3.033    3.187    3.033    3.187
 dbcsr_data_new                 4836308  9.8    3.064    3.102    3.064    3.102
 dbcsr_iterator_start           1274979  9.1    2.575    2.658    3.007    3.074
 sum_up_and_integrate                37  8.0    0.000    0.001    2.280    3.014
 integrate_v_rspace                  37  9.0    0.019    0.032    2.276    3.010
 copy_fm_to_dbcsr_bc              63936  9.0    0.824    0.859    2.823    2.986
 fft_wrap_pw1pw2                    671 10.0    0.008    0.010    2.936    2.954
 copy_dbcsr_to_fm_bc             129368  8.0    1.240    1.285    2.778    2.882
 fft_wrap_pw1pw2_500                446 11.3    0.226    0.240    2.778    2.803
 cp_cfm_heevd                      4033  8.0    0.004    0.005    2.712    2.741
 cp_cfm_heevd_base                 4033  9.0    2.708    2.736    2.708    2.736
 dbcsr_data_release             6626951 10.2    2.410    2.439    2.410    2.439
 fft3d_ps                           671 12.0    1.156    1.187    2.275    2.308
 qs_vxc_create                       37  8.0    0.001    0.001    2.229    2.239
 xc_vxc_pw_create                    37  9.0    0.087    0.088    2.228    2.238
 grid_collocate_task_list            38  7.0    1.705    2.151    1.705    2.151
 grid_integrate_task_list            37 10.0    1.352    2.075    1.352    2.075
 dbcsr_destroy                   647867  8.4    1.067    1.105    2.010    2.070
 density_rs2pw                       38  7.0    0.002    0.002    1.783    1.969
 gspace_mixing                       36  5.0    0.079    0.079    1.953    1.953
 dbcsr_iterator_stop            1274979  9.1    1.633    1.660    1.921    1.948
 dbcsr_copy                       97836  8.1    0.264    0.282    1.454    1.764
 broyden_mixing                      36  6.0    1.608    1.614    1.629    1.631
 mp_bcast_im                     384800  8.3    1.385    1.580    1.385    1.580
 transfer_rs2pw                     154  8.0    0.002    0.002    1.284    1.477
 xc_pw_derive                       222 11.0    0.001    0.001    1.439    1.470
 dbcsr_copy_into_existing         64388 10.0    0.764    1.057    1.135    1.426
 quick_finalize                  257832  9.5    0.797    0.808    1.387    1.399
 mp_waitall_1                    794767  8.3    0.697    1.343    0.697    1.343
 transfer_rs2pw_500                  40  8.9    0.385    0.400    1.123    1.325
 xc_rho_set_and_dset_create          37 10.0    0.050    0.052    1.191    1.200
 mp_alltoall_z22v                   671 14.0    0.958    1.058    0.958    1.058
 mp_sendrecv_dv                    1078 10.0    0.826    1.019    0.826    1.019
 mp_comm_free                    388147  9.0    0.940    1.000    0.940    1.000
 cp_fm_finish_copy_general        80068  7.8    0.787    0.844    0.907    0.974
 xc_pw_divergence                    37 10.0    0.001    0.001    0.937    0.959
 potential_pw2rs                     37 10.0    0.005    0.005    0.905    0.916
 x_to_yz                            370 13.2    0.097    0.108    0.644    0.675
 write_kpoints_restart               37  5.0    0.003    0.005    0.623    0.623
 transfer_pw2rs                     149 11.0    0.001    0.001    0.617    0.617
 kpoint_density_matrices             37  7.0    0.047    0.048    0.576    0.585
 yz_to_x                            301 12.8    0.057    0.062    0.469    0.542
 dbcsr_sort_indices              518460 11.0    0.505    0.525    0.505    0.525
 parallel_gemm_fm                 15984  8.0    0.014    0.014    0.512    0.523
 parallel_gemm_fm_gemm            15984  9.0    0.014    0.015    0.498    0.509
 cp_fm_gemm                       15984 10.0    0.484    0.494    0.484    0.494
 dbcsr_set                       358077  8.2    0.343    0.360    0.455    0.485
 transfer_pw2rs_500                  38 11.9    0.256    0.264    0.464    0.477
 cp_cfm_triangular_multiply       12099  8.0    0.465    0.468    0.465    0.468
 dbcsr_reserve_all_blocks         63936 10.0    0.097    0.103    0.426    0.447
 dbcsr_iterator_seek            1274979 10.1    0.432    0.442    0.432    0.442
 evaluate_core_matrix_traces         37  6.0    0.000    0.000    0.439    0.439
 calculate_ptrace_kp                 74  7.0    0.024    0.025    0.438    0.439
 dbcsr_dot                        33449  8.0    0.147    0.159    0.423    0.428
 merge_index                     193304 11.3    0.384    0.422    0.384    0.422
 dbcsr_make_index_exist          681315  9.4    0.372    0.399    0.372    0.399
 xc_functional_eval                  37 11.0    0.000    0.000    0.386    0.395
 pbe_lda_eval                        37 12.0    0.386    0.394    0.386    0.394
 mp_irecv_iv                     769600  8.3    0.046    0.369    0.046    0.369
 dbcsr_reserve_blocks             67324 10.8    0.274    0.288    0.341    0.360
 mp_isend_dv                     192992  8.3    0.307    0.326    0.307    0.326
 dbcsr_switch_data_area          257832 10.5    0.232    0.237    0.302    0.312
 cp_fm_cleanup_copy_general      136456  7.0    0.179    0.180    0.273    0.275
 mp_sum_d                         34167  8.9    0.227    0.273    0.227    0.273
 pw_scatter_p                       370 12.2    0.249    0.260    0.249    0.260
 self_consistency_check              37  5.0    0.023    0.024    0.250    0.254
 mp_isend_iv                     433048  8.3    0.068    0.254    0.068    0.254
 cp_fm_write_unformatted            904  6.0    0.170    0.208    0.172    0.217
 cp_sm_mix                        16724  6.0    0.053    0.060    0.203    0.208
 dbcsr_distribution_new          193306  8.6    0.160    0.185    0.160    0.185
 kpoint_set_mo_occupation            37  7.0    0.083    0.084    0.160    0.183
 mp_irecv_im2                    384800  8.3    0.023    0.183    0.023    0.183
 cp_cfm_triangular_invert          4033  8.0    0.177    0.180    0.177    0.180
 pw_poisson_solve                    37  8.0    0.000    0.000    0.179    0.179
 init_scf_run                         1  3.0    0.000    0.000    0.171    0.176
 scf_env_initial_rho_setup            1  4.0    0.000    0.000    0.171    0.176
 qs_energies_init_hamiltonians        1  3.0    0.000    0.000    0.167    0.167
 cp_cfm_cholesky_decompose         4033  8.0    0.152    0.153    0.152    0.153
 dbcsr_get_data_size_used        451136  9.8    0.148    0.152    0.148    0.152
 dbcsr_make_dbcsr_index          518460 11.0    0.134    0.144    0.134    0.144
 dbcsr_data_copy_aa2             193304 11.3    0.120    0.132    0.120    0.132
 transfer_pw2rs_170                  37 12.0    0.059    0.061    0.116    0.132
 transfer_rs2pw_170                  38  9.0    0.059    0.061    0.122    0.127
 mp_sum_dv                          332  3.4    0.060    0.126    0.060    0.126
 dbcsr_zero                      358077  9.2    0.112    0.125    0.112    0.125
 mp_isend_im2                    216524  8.3    0.030    0.122    0.030    0.122
 mp_isendrecv_dv                   1043 13.0    0.058    0.122    0.058    0.122
 mp_max_d                         16726  7.0    0.112    0.119    0.112    0.119
 pw_integral_ab_c1d_c1d_gs           37  9.0    0.112    0.114    0.116    0.117
 fft_wrap_pw1pw2_170                 75 10.5    0.010    0.011    0.111    0.116
 cp_dbcsr_alloc_block_from_nbl     3388  5.2    0.065    0.099    0.079    0.116
 mp_irecv_dv                     192992  8.3    0.109    0.114    0.109    0.114
 qs_init_subsys                       1  2.0    0.001    0.002    0.112    0.113
 restraint_control                    1  2.0    0.000    0.000    0.056    0.111
 mp_sum_i                             4  2.8    0.056    0.111    0.056    0.111
 qs_env_setup                         1  3.0    0.000    0.000    0.110    0.111
 qs_env_rebuild_pw_env                2  3.5    0.000    0.000    0.109    0.110
 pw_env_rebuild                       1  5.0    0.001    0.001    0.109    0.110
 parser_read_line                  7463  4.0    0.002    0.003    0.102    0.104
 pw_gather_p                        301 11.8    0.098    0.102    0.098    0.102
 parser_read_line_low                25  6.1    0.009    0.037    0.100    0.101
 mp_sum_dm3                          37  8.0    0.077    0.100    0.077    0.100
 pw_grid_setup                        4  6.0    0.000    0.000    0.099    0.100
 pw_grid_setup_internal               4  7.0    0.002    0.003    0.099    0.100
 build_core_hamiltonian_matrix        1  4.0    0.002    0.002    0.078    0.099
 broadcast_input_information         25  7.1    0.028    0.039    0.091    0.096
 qs_env_update_s_mstruct              1  4.0    0.000    0.000    0.078    0.086
 pw_derive                          333 11.3    0.074    0.078    0.074    0.078
 topology_control                     1  2.0    0.000    0.000    0.074    0.074
 pw_copy                            555 10.5    0.069    0.073    0.069    0.073
 create_qs_kind_set                   1  2.0    0.000    0.000    0.071    0.071
 read_qs_kind                         1  3.0    0.036    0.038    0.071    0.071
 calculate_rho_core                   1  5.0    0.003    0.004    0.061    0.070
 pw_grid_sort                         4  8.0    0.046    0.047    0.066    0.068
 scf_post_calculation_gpw             1  3.0    0.000    0.000    0.062    0.062
 cp_cfm_scale_and_add_fm          16132  7.0    0.062    0.062    0.062    0.062
 write_available_results              1  4.0    0.000    0.000    0.062    0.062
 write_mo_free_results                1  5.0    0.003    0.003    0.062    0.062
 pw_copy_from_array                 370 12.2    0.041    0.058    0.041    0.058
 read_cell_cif                        2  4.5    0.002    0.005    0.050    0.051
 coordinate_control                   1  3.0    0.001    0.001    0.045    0.046
 coordinate_control_READ_COORDI       1  4.0    0.000    0.000    0.045    0.045
 read_coordinate_cif                  1  5.0    0.002    0.002    0.045    0.045
 pw_poisson_set                      38  8.9    0.001    0.001    0.045    0.045
 mixing_init                          1  5.0    0.039    0.041    0.040    0.041
 mp_bcast_i_src                     100  8.1    0.034    0.039    0.034    0.039
 mp_bcast_am_src                     25  8.1    0.016    0.018    0.029    0.039
 cp_cfm_to_cfm_columns             4033  8.0    0.038    0.038    0.038    0.038
 mixing_allocate                      1  3.0    0.003    0.003    0.028    0.038
 transfer_rs2pw_60                   38  9.0    0.009    0.010    0.028    0.031
 transfer_pw2rs_60                   37 12.0    0.010    0.011    0.028    0.031
 pw_axpy                            374  9.3    0.028    0.030    0.028    0.030
 fft_wrap_pw1pw2_60                  75 10.5    0.002    0.002    0.029    0.030
 calculate_hirshfeld_normalizat       1  6.0    0.006    0.013    0.029    0.029
 pw_copy_to_array                   301 11.8    0.026    0.028    0.026    0.028
 hirshfeld_integration                1  6.0    0.008    0.015    0.027    0.027
 cp_cfm_to_fm                      4033  7.0    0.026    0.026    0.026    0.026
 build_overlap_matrix_low             1  5.0    0.006    0.007    0.018    0.024
 build_kinetic_matrix_low             1  5.0    0.005    0.006    0.017    0.022
 -------------------------------------------------------------------------------

 The number of warnings for this run is : 1
 
 -------------------------------------------------------------------------------
  **** **** ******  **  PROGRAM ENDED AT                 2025-08-04 17:46:28.653
 ***** ** ***  *** **   PROGRAM RAN ON                              i04r10c01s12
 **    ****   ******    PROGRAM RAN BY                                   di38fab
 ***** **    ** ** **   PROGRAM PROCESS ID                               3990776
  **** **  *******  **  PROGRAM STOPPED IN /hppfs/scratch/04/di38fab/09_GTH/Delt
                                           a_Set/Xe/aug-SZV-MOLOPT-GTH-tier-2/12
                                           x12x12
