Ga                                      
   1.00000000000000     
     4.566890    0.000000    0.000000
     0.000000    7.753300    0.000000
     0.000000    0.000000    4.599780
   Ga
     8
Direct
  0.000000  0.156420  0.081200
  0.000000  0.843580  0.918800
  0.000000  0.343580  0.581200
  0.000000  0.656420  0.418800
  0.500000  0.656420  0.081200
  0.500000  0.343580  0.918800
  0.500000  0.843580  0.581200
  0.500000  0.156420  0.418800
 
   48   72   48
  59.247      58.540      56.485      53.264      49.145      44.437      39.444      34.439      29.641      25.210    
  21.247      17.805      14.893      12.485      10.534      8.9776      7.7526      6.7991      6.0661      5.5120    
  5.1036      4.8145      4.6240      4.5163      4.4816      4.5163      4.6240      4.8145      5.1036      5.5120    
  6.0661      6.7991      7.7526      8.9776      10.534      12.485      14.893      17.805      21.247      25.210    
  29.641      34.439      39.444      44.437      49.145      53.264      56.485      58.540      60.921      60.172    
  57.997      54.598      50.268      45.345      40.157      34.992      30.070      25.548      21.520      18.029    
  15.077      12.637      10.660      9.0845      7.8460      6.8841      6.1464      5.5898      5.1800      4.8901    
  4.6989      4.5907      4.5558      4.5907      4.6989      4.8901      5.1800      5.5898      6.1464      6.8841    
  7.8460      9.0845      10.660      12.637      15.077      18.029      21.520      25.548      30.070      34.992    
  40.157      45.345      50.268      54.598      57.997      60.172      66.246      65.371      62.837      58.891    
  53.901      48.290      42.464      36.761      31.423      26.596      22.349      18.699      15.626      13.090    
  11.038      9.4052      8.1269      7.1394      6.3863      5.8206      5.4052      5.1112      4.9169      4.8066    
  4.7710      4.8066      4.9169      5.1112      5.4052      5.8206      6.3863      7.1394      8.1269      9.4052    
  11.038      13.090      15.626      18.699      22.349      26.596      31.423      36.761      42.464      48.290    
  53.901      58.891      62.837      65.371      77.399      75.986      72.141      66.775      60.602      53.787    
  46.782      40.044      33.878      28.440      23.763      19.813      16.527      13.833      11.662      9.9400    
  8.5983      7.5683      6.7882      6.2054      5.7784      5.4760      5.2755      5.1612      5.1241      5.1612    
  5.2755      5.4760      5.7784      6.2054      6.7882      7.5683      8.5983      9.9400      11.662      13.833    
  16.527      19.813      23.763      28.440      33.878      40.044      46.782      53.787      60.602      66.775    
  72.141      75.986      116.99      113.10      102.58      88.453      74.294      62.622      53.483      45.161    
  37.657      31.199      25.805      21.374      17.767      14.854      12.525      10.690      9.2668      8.1813    
  7.3652      6.7594      6.3175      6.0050      5.7974      5.6787      5.6400      5.6787      5.7974      6.0050    
  6.3175      6.7594      7.3652      8.1813      9.2668      10.690      12.525      14.854      17.767      21.374    
  25.805      31.199      37.657      45.161      53.483      62.622      74.294      88.453      102.58      113.10    
  217.58      208.74      184.46      150.74      115.41      85.483      64.745      52.176      42.863      34.950    
  28.508      23.383      19.334      16.139      13.622      11.655      10.140      8.9912      8.1347      7.5048    
  7.0489      6.7281      6.5155      6.3939      6.3543      6.3939      6.5155      6.7281      7.0489      7.5048    
  8.1347      8.9912      10.140      11.655      13.622      16.139      19.334      23.383      28.508      34.950    
  42.863      52.176      64.745      85.483      115.41      150.74      184.46      208.74      397.18      381.00    
  336.02      271.97      202.01      139.08      92.196      63.846      49.311      39.625      31.842      25.815    
  21.205      17.669      14.939      12.831      11.219      10.006      9.1084      8.4555      7.9883      7.6625    
  7.4478      7.3255      7.2856      7.3255      7.4478      7.6625      7.9883      8.4555      9.1084      10.006    
  11.219      12.831      14.939      17.669      21.205      25.815      31.842      39.625      49.311      63.846    
  92.196      139.08      202.01      271.97      336.02      381.00      650.29      624.94      553.99      451.41    
  336.42      228.66      143.32      87.422      58.303      44.928      35.654      28.585      23.327      19.409    
  16.454      14.206      12.503      11.229      10.295      9.6238      9.1501      8.8239      8.6111      8.4908    
  8.4518      8.4908      8.6111      8.8239      9.1501      9.6238      10.295      11.229      12.503      14.206    
  16.454      19.409      23.327      28.585      35.654      44.928      58.303      87.422      143.32      228.66    
  336.42      451.41      553.99      624.94      946.20      910.91      811.74      667.11      502.50      344.34    
  214.10      123.61      72.787      50.561      39.641      31.521      25.599      21.300      18.132      15.763    
  13.986      12.669      11.715      11.040      10.574      10.259      10.058      9.9457      9.9098      9.9457    
  10.058      10.259      10.574      11.040      11.715      12.669      13.986      15.763      18.132      21.300    
  25.599      31.521      39.641      50.561      72.787      123.61      214.10      344.34      502.50      667.11    
  811.74      910.91      1234.5      1189.8      1064.3      880.37      669.30      463.59      290.21      165.23    
  91.060      57.010      43.388      34.376      27.881      23.262      19.930      17.482      15.671      14.348    
  13.407      12.760      12.328      12.047      11.874      11.781      11.752      11.781      11.874      12.047    
  12.328      12.760      13.407      14.348      15.671      17.482      19.930      23.262      27.881      34.376    
  43.388      57.010      91.060      165.23      290.21      463.59      669.30      880.37      1064.3      1189.8    
  1456.7      1405.0      1259.5      1045.9      799.84      558.30      352.18      200.55      107.66      63.217    
  46.465      36.873      30.011      25.206      21.804      19.350      17.569      16.295      15.417      14.842    
  14.482      14.266      14.144      14.084      14.066      14.084      14.144      14.266      14.482      14.842    
  15.417      16.295      17.569      19.350      21.804      25.206      30.011      36.873      46.465      63.217    
  107.66      200.55      352.18      558.30      799.84      1045.9      1259.5      1405.0      1563.1      1508.0    
  1352.9      1125.2      862.62      604.20      382.67      218.45      116.59      67.015      48.531      38.780    
  31.851      27.060      23.724      21.365      19.696      18.544      17.793      17.345      17.104      16.993    
  16.952      16.943      16.942      16.943      16.952      16.993      17.104      17.345      17.793      18.544    
  19.696      21.365      23.724      27.060      31.851      38.780      48.531      67.015      116.59      218.45    
  382.67      604.20      862.62      1125.2      1352.9      1508.0      1528.7      1474.7      1322.5      1099.2    
  841.95      589.15      372.92      213.16      114.58      67.003      49.387      39.962      33.318      28.778    
  25.672      23.531      22.074      21.133      20.592      20.346      20.294      20.347      20.434      20.507    
  20.534      20.507      20.434      20.347      20.294      20.346      20.592      21.133      22.074      23.531    
  25.672      28.778      33.318      39.962      49.387      67.003      114.58      213.16      372.92      589.15    
  841.95      1099.2      1322.5      1474.7      1361.9      1313.1      1175.7      974.41      743.20      517.31    
  325.89      186.58      102.66      63.590      49.041      40.411      34.400      30.350      27.642      25.852    
  24.726      24.111      23.894      23.968      24.220      24.543      24.845      25.056      25.132      25.056    
  24.845      24.543      24.220      23.968      23.894      24.111      24.726      25.852      27.642      30.350    
  34.400      40.411      49.041      63.590      102.66      186.58      325.89      517.31      743.20      974.41    
  1175.7      1313.1      1101.2      1060.7      946.73      780.44      590.72      407.48      255.09      147.47    
  85.659      58.640      47.666      40.232      35.142      31.786      29.633      28.334      27.682      27.550    
  27.835      28.422      29.179      29.961      30.636      31.092      31.252      31.092      30.636      29.961    
  29.179      28.422      27.835      27.550      27.682      28.334      29.633      31.786      35.142      40.232    
  47.666      58.640      85.659      147.47      255.09      407.48      590.72      780.44      946.73      1060.7    
  801.71      770.99      684.93      560.17      419.58      286.56      179.50      107.70      69.592      53.932    
  45.567      39.600      35.619      33.106      31.649      30.995      31.005      31.592      32.662      34.085    
  35.684      37.245      38.555      39.425      39.730      39.425      38.555      37.245      35.684      34.085    
  32.662      31.592      31.005      30.995      31.649      33.106      35.619      39.600      45.567      53.932    
  69.592      107.70      179.50      286.56      419.58      560.17      684.93      770.99      519.05      498.14    
  439.91      356.54      264.62      180.63      116.64      77.200      58.354      49.465      43.095      38.700    
  35.907      34.332      33.705      33.891      34.833      36.493      38.784      41.528      44.451      47.219    
  49.490      50.996      51.536      50.996      49.490      47.219      44.451      41.528      38.784      36.493    
  34.833      33.891      33.705      34.332      35.907      38.700      43.095      49.465      58.354      77.200    
  116.64      180.63      264.62      356.54      439.91      498.14      295.18      282.83      248.75      201.02    
  150.31      106.64      76.221      59.528      51.101      44.969      40.550      37.673      36.060      35.487    
  35.843      37.123      39.371      42.591      46.657      51.273      56.445      62.897      69.811      75.226    
  77.281      75.226      69.811      62.897      56.445      51.273      46.657      42.591      39.371      37.123    
  35.843      35.487      36.060      37.673      40.550      44.969      51.101      59.528      76.221      106.64    
  150.31      201.02      248.75      282.83      149.75      143.81      127.71      105.99      84.327      67.350    
  56.691      50.094      44.800      40.805      38.115      36.596      36.108      36.596      38.115      40.805    
  44.800      50.094      56.691      67.350      84.327      105.99      127.71      143.81      149.75      143.81    
  127.71      105.99      84.327      67.350      56.691      50.094      44.800      40.805      38.115      36.596    
  36.108      36.596      38.115      40.805      44.800      50.094      56.691      67.350      84.327      105.99    
  127.71      143.81      77.281      75.226      69.811      62.897      56.445      51.273      46.657      42.591    
  39.371      37.123      35.843      35.487      36.060      37.673      40.550      44.969      51.101      59.528    
  76.221      106.64      150.31      201.02      248.75      282.83      295.18      282.83      248.75      201.02    
  150.31      106.64      76.221      59.528      51.101      44.969      40.550      37.673      36.060      35.487    
  35.843      37.123      39.371      42.591      46.657      51.273      56.445      62.897      69.811      75.226    
  51.536      50.996      49.490      47.219      44.451      41.528      38.784      36.493      34.833      33.891    
  33.705      34.332      35.907      38.700      43.095      49.465      58.354      77.200      116.64      180.63    
  264.62      356.54      439.91      498.14      519.05      498.14      439.91      356.54      264.62      180.63    
  116.64      77.200      58.354      49.465      43.095      38.700      35.907      34.332      33.705      33.891    
  34.833      36.493      38.784      41.528      44.451      47.219      49.490      50.996      39.730      39.425    
  38.555      37.245      35.684      34.085      32.662      31.592      31.005      30.995      31.649      33.106    
  35.619      39.600      45.567      53.932      69.592      107.70      179.50      286.56      419.58      560.17    
  684.93      770.99      801.71      770.99      684.93      560.17      419.58      286.56      179.50      107.70    
  69.592      53.932      45.567      39.600      35.619      33.106      31.649      30.995      31.005      31.592    
  32.662      34.085      35.684      37.245      38.555      39.425      31.252      31.092      30.636      29.961    
  29.179      28.422      27.835      27.550      27.682      28.334      29.633      31.786      35.142      40.232    
  47.666      58.640      85.659      147.47      255.09      407.48      590.72      780.44      946.73      1060.7    
  1101.2      1060.7      946.73      780.44      590.72      407.48      255.09      147.47      85.659      58.640    
  47.666      40.232      35.142      31.786      29.633      28.334      27.682      27.550      27.835      28.422    
  29.179      29.961      30.636      31.092      25.132      25.056      24.845      24.543      24.220      23.968    
  23.894      24.111      24.726      25.852      27.642      30.350      34.400      40.411      49.041      63.590    
  102.66      186.58      325.89      517.31      743.20      974.41      1175.7      1313.1      1361.9      1313.1    
  1175.7      974.41      743.20      517.31      325.89      186.58      102.66      63.590      49.041      40.411    
  34.400      30.350      27.642      25.852      24.726      24.111      23.894      23.968      24.220      24.543    
  24.845      25.056      20.534      20.507      20.434      20.347      20.294      20.346      20.592      21.133    
  22.074      23.531      25.672      28.778      33.318      39.962      49.387      67.003      114.58      213.16    
  372.92      589.15      841.95      1099.2      1322.5      1474.7      1528.7      1474.7      1322.5      1099.2    
  841.95      589.15      372.92      213.16      114.58      67.003      49.387      39.962      33.318      28.778    
  25.672      23.531      22.074      21.133      20.592      20.346      20.294      20.347      20.434      20.507    
  16.942      16.943      16.952      16.993      17.104      17.345      17.793      18.544      19.696      21.365    
  23.724      27.060      31.851      38.780      48.531      67.015      116.59      218.45      382.67      604.20    
  862.62      1125.2      1352.9      1508.0      1563.1      1508.0      1352.9      1125.2      862.62      604.20    
  382.67      218.45      116.59      67.015      48.531      38.780      31.851      27.060      23.724      21.365    
  19.696      18.544      17.793      17.345      17.104      16.993      16.952      16.943      14.066      14.084    
  14.144      14.266      14.482      14.842      15.417      16.295      17.569      19.350      21.804      25.206    
  30.011      36.873      46.465      63.217      107.66      200.55      352.18      558.30      799.84      1045.9    
  1259.5      1405.0      1456.7      1405.0      1259.5      1045.9      799.84      558.30      352.18      200.55    
  107.66      63.217      46.465      36.873      30.011      25.206      21.804      19.350      17.569      16.295    
  15.417      14.842      14.482      14.266      14.144      14.084      11.752      11.781      11.874      12.047    
  12.328      12.760      13.407      14.348      15.671      17.482      19.930      23.262      27.881      34.376    
  43.388      57.010      91.060      165.23      290.21      463.59      669.30      880.37      1064.3      1189.8    
  1234.5      1189.8      1064.3      880.37      669.30      463.59      290.21      165.23      91.060      57.010    
  43.388      34.376      27.881      23.262      19.930      17.482      15.671      14.348      13.407      12.760    
  12.328      12.047      11.874      11.781      9.9098      9.9457      10.058      10.259      10.574      11.040    
  11.715      12.669      13.986      15.763      18.132      21.300      25.599      31.521      39.641      50.561    
  72.787      123.61      214.10      344.34      502.50      667.11      811.74      910.91      946.20      910.91    
  811.74      667.11      502.50      344.34      214.10      123.61      72.787      50.561      39.641      31.521    
  25.599      21.300      18.132      15.763      13.986      12.669      11.715      11.040      10.574      10.259    
  10.058      9.9457      8.4518      8.4908      8.6111      8.8239      9.1501      9.6238      10.295      11.229    
  12.503      14.206      16.454      19.409      23.327      28.585      35.654      44.928      58.303      87.422    
  143.32      228.66      336.42      451.41      553.99      624.94      650.29      624.94      553.99      451.41    
  336.42      228.66      143.32      87.422      58.303      44.928      35.654      28.585      23.327      19.409    
  16.454      14.206      12.503      11.229      10.295      9.6238      9.1501      8.8239      8.6111      8.4908    
  7.2856      7.3255      7.4478      7.6625      7.9883      8.4555      9.1084      10.006      11.219      12.831    
  14.939      17.669      21.205      25.815      31.842      39.625      49.311      63.846      92.196      139.08    
  202.01      271.97      336.02      381.00      397.18      381.00      336.02      271.97      202.01      139.08    
  92.196      63.846      49.311      39.625      31.842      25.815      21.205      17.669      14.939      12.831    
  11.219      10.006      9.1084      8.4555      7.9883      7.6625      7.4478      7.3255      6.3543      6.3939    
  6.5155      6.7281      7.0489      7.5048      8.1347      8.9912      10.140      11.655      13.622      16.139    
  19.334      23.383      28.508      34.950      42.863      52.176      64.745      85.483      115.41      150.74    
  184.46      208.74      217.58      208.74      184.46      150.74      115.41      85.483      64.745      52.176    
  42.863      34.950      28.508      23.383      19.334      16.139      13.622      11.655      10.140      8.9912    
  8.1347      7.5048      7.0489      6.7281      6.5155      6.3939      5.6400      5.6787      5.7974      6.0050    
  6.3175      6.7594      7.3652      8.1813      9.2668      10.690      12.525      14.854      17.767      21.374    
  25.805      31.199      37.657      45.161      53.483      62.622      74.294      88.453      102.58      113.10    
  116.99      113.10      102.58      88.453      74.294      62.622      53.483      45.161      37.657      31.199    
  25.805      21.374      17.767      14.854      12.525      10.690      9.2668      8.1813      7.3652      6.7594    
  6.3175      6.0050      5.7974      5.6787      5.1241      5.1612      5.2755      5.4760      5.7784      6.2054    
  6.7882      7.5683      8.5983      9.9400      11.662      13.833      16.527      19.813      23.763      28.440    
  33.878      40.044      46.782      53.787      60.602      66.775      72.141      75.986      77.399      75.986    
  72.141      66.775      60.602      53.787      46.782      40.044      33.878      28.440      23.763      19.813    
  16.527      13.833      11.662      9.9400      8.5983      7.5683      6.7882      6.2054      5.7784      5.4760    
  5.2755      5.1612      4.7710      4.8066      4.9169      5.1112      5.4052      5.8206      6.3863      7.1394    
  8.1269      9.4052      11.038      13.090      15.626      18.699      22.349      26.596      31.423      36.761    
  42.464      48.290      53.901      58.891      62.837      65.371      66.246      65.371      62.837      58.891    
  53.901      48.290      42.464      36.761      31.423      26.596      22.349      18.699      15.626      13.090    
  11.038      9.4052      8.1269      7.1394      6.3863      5.8206      5.4052      5.1112      4.9169      4.8066    
  4.5558      4.5907      4.6989      4.8901      5.1800      5.5898      6.1464      6.8841      7.8460      9.0845    
  10.660      12.637      15.077      18.029      21.520      25.548      30.070      34.992      40.157      45.345    
  50.268      54.598      57.997      60.172      60.921      60.172      57.997      54.598      50.268      45.345    
  40.157      34.992      30.070      25.548      21.520      18.029      15.077      12.637      10.660      9.0845    
  7.8460      6.8841      6.1464      5.5898      5.1800      4.8901      4.6989      4.5907      4.4816      4.5163    
  4.6240      4.8145      5.1036      5.5120      6.0661      6.7991      7.7526      8.9776      10.534      12.485    
  14.893      17.805      21.247      25.210      29.641      34.439      39.444      44.437      49.145      53.264    
  56.485      58.540      59.247      58.540      56.485      53.264      49.145      44.437      39.444      34.439    
  29.641      25.210      21.247      17.805      14.893      12.485      10.534      8.9776      7.7526      6.7991    
  6.0661      5.5120      5.1036      4.8145      4.6240      4.5163      4.5558      4.5907      4.6989      4.8901    
  5.1800      5.5898      6.1464      6.8841      7.8460      9.0845      10.660      12.637      15.077      18.029    
  21.520      25.548      30.070      34.992      40.157      45.345      50.268      54.598      57.997      60.172    
  60.921      60.172      57.997      54.598      50.268      45.345      40.157      34.992      30.070      25.548    
  21.520      18.029      15.077      12.637      10.660      9.0845      7.8460      6.8841      6.1464      5.5898    
  5.1800      4.8901      4.6989      4.5907      4.7710      4.8066      4.9169      5.1112      5.4052      5.8206    
  6.3863      7.1394      8.1269      9.4052      11.038      13.090      15.626      18.699      22.349      26.596    
  31.423      36.761      42.464      48.290      53.901      58.891      62.837      65.371      66.246      65.371    
  62.837      58.891      53.901      48.290      42.464      36.761      31.423      26.596      22.349      18.699    
  15.626      13.090      11.038      9.4052      8.1269      7.1394      6.3863      5.8206      5.4052      5.1112    
  4.9169      4.8066      5.1241      5.1612      5.2755      5.4760      5.7784      6.2054      6.7882      7.5683    
  8.5983      9.9400      11.662      13.833      16.527      19.813      23.763      28.440      33.878      40.044    
  46.782      53.787      60.602      66.775      72.141      75.986      77.399      75.986      72.141      66.775    
  60.602      53.787      46.782      40.044      33.878      28.440      23.763      19.813      16.527      13.833    
  11.662      9.9400      8.5983      7.5683      6.7882      6.2054      5.7784      5.4760      5.2755      5.1612    
  5.6400      5.6787      5.7974      6.0050      6.3175      6.7594      7.3652      8.1813      9.2668      10.690    
  12.525      14.854      17.767      21.374      25.805      31.199      37.657      45.161      53.483      62.622    
  74.294      88.453      102.58      113.10      116.99      113.10      102.58      88.453      74.294      62.622    
  53.483      45.161      37.657      31.199      25.805      21.374      17.767      14.854      12.525      10.690    
  9.2668      8.1813      7.3652      6.7594      6.3175      6.0050      5.7974      5.6787      6.3543      6.3939    
  6.5155      6.7281      7.0489      7.5048      8.1347      8.9912      10.140      11.655      13.622      16.139    
  19.334      23.383      28.508      34.950      42.863      52.176      64.745      85.483      115.41      150.74    
  184.46      208.74      217.58      208.74      184.46      150.74      115.41      85.483      64.745      52.176    
  42.863      34.950      28.508      23.383      19.334      16.139      13.622      11.655      10.140      8.9912    
  8.1347      7.5048      7.0489      6.7281      6.5155      6.3939      7.2856      7.3255      7.4478      7.6625    
  7.9883      8.4555      9.1084      10.006      11.219      12.831      14.939      17.669      21.205      25.815    
  31.842      39.625      49.311      63.846      92.196      139.08      202.01      271.97      336.02      381.00    
  397.18      381.00      336.02      271.97      202.01      139.08      92.196      63.846      49.311      39.625    
  31.842      25.815      21.205      17.669      14.939      12.831      11.219      10.006      9.1084      8.4555    
  7.9883      7.6625      7.4478      7.3255      8.4518      8.4908      8.6111      8.8239      9.1501      9.6238    
  10.295      11.229      12.503      14.206      16.454      19.409      23.327      28.585      35.654      44.928    
  58.303      87.422      143.32      228.66      336.42      451.41      553.99      624.94      650.29      624.94    
  553.99      451.41      336.42      228.66      143.32      87.422      58.303      44.928      35.654      28.585    
  23.327      19.409      16.454      14.206      12.503      11.229      10.295      9.6238      9.1501      8.8239    
  8.6111      8.4908      9.9098      9.9457      10.058      10.259      10.574      11.040      11.715      12.669    
  13.986      15.763      18.132      21.300      25.599      31.521      39.641      50.561      72.787      123.61    
  214.10      344.34      502.50      667.11      811.74      910.91      946.20      910.91      811.74      667.11    
  502.50      344.34      214.10      123.61      72.787      50.561      39.641      31.521      25.599      21.300    
  18.132      15.763      13.986      12.669      11.715      11.040      10.574      10.259      10.058      9.9457    
  11.752      11.781      11.874      12.047      12.328      12.760      13.407      14.348      15.671      17.482    
  19.930      23.262      27.881      34.376      43.388      57.010      91.060      165.23      290.21      463.59    
  669.30      880.37      1064.3      1189.8      1234.5      1189.8      1064.3      880.37      669.30      463.59    
  290.21      165.23      91.060      57.010      43.388      34.376      27.881      23.262      19.930      17.482    
  15.671      14.348      13.407      12.760      12.328      12.047      11.874      11.781      14.066      14.084    
  14.144      14.266      14.482      14.842      15.417      16.295      17.569      19.350      21.804      25.206    
  30.011      36.873      46.465      63.217      107.66      200.55      352.18      558.30      799.84      1045.9    
  1259.5      1405.0      1456.7      1405.0      1259.5      1045.9      799.84      558.30      352.18      200.55    
  107.66      63.217      46.465      36.873      30.011      25.206      21.804      19.350      17.569      16.295    
  15.417      14.842      14.482      14.266      14.144      14.084      16.942      16.943      16.952      16.993    
  17.104      17.345      17.793      18.544      19.696      21.365      23.724      27.060      31.851      38.780    
  48.531      67.015      116.59      218.45      382.67      604.20      862.62      1125.2      1352.9      1508.0    
  1563.1      1508.0      1352.9      1125.2      862.62      604.20      382.67      218.45      116.59      67.015    
  48.531      38.780      31.851      27.060      23.724      21.365      19.696      18.544      17.793      17.345    
  17.104      16.993      16.952      16.943      20.534      20.507      20.434      20.347      20.294      20.346    
  20.592      21.133      22.074      23.531      25.672      28.778      33.318      39.962      49.387      67.003    
  114.58      213.16      372.92      589.15      841.95      1099.2      1322.5      1474.7      1528.7      1474.7    
  1322.5      1099.2      841.95      589.15      372.92      213.16      114.58      67.003      49.387      39.962    
  33.318      28.778      25.672      23.531      22.074      21.133      20.592      20.346      20.294      20.347    
  20.434      20.507      25.132      25.056      24.845      24.543      24.220      23.968      23.894      24.111    
  24.726      25.852      27.642      30.350      34.400      40.411      49.041      63.590      102.66      186.58    
  325.89      517.31      743.20      974.41      1175.7      1313.1      1361.9      1313.1      1175.7      974.41    
  743.20      517.31      325.89      186.58      102.66      63.590      49.041      40.411      34.400      30.350    
  27.642      25.852      24.726      24.111      23.894      23.968      24.220      24.543      24.845      25.056    
  31.252      31.092      30.636      29.961      29.179      28.422      27.835      27.550      27.682      28.334    
  29.633      31.786      35.142      40.232      47.666      58.640      85.659      147.47      255.09      407.48    
  590.72      780.44      946.73      1060.7      1101.2      1060.7      946.73      780.44      590.72      407.48    
  255.09      147.47      85.659      58.640      47.666      40.232      35.142      31.786      29.633      28.334    