Ga                                      
   1.00000000000000     
     4.566890    0.000000    0.000000
     0.000000    7.753300    0.000000
     0.000000    0.000000    4.599780
   Ga
     8
Direct
  0.000000  0.156420  0.081200
  0.000000  0.843580  0.918800
  0.000000  0.343580  0.581200
  0.000000  0.656420  0.418800
  0.500000  0.656420  0.081200
  0.500000  0.343580  0.918800
  0.500000  0.843580  0.581200
  0.500000  0.156420  0.418800
 
   48   72   48
 0.59246820730E+02 0.58540030093E+02 0.56484802538E+02 0.53264115290E+02 0.49145447056E+02
 0.44436832967E+02 0.39444276041E+02 0.34439476690E+02 0.29641324966E+02 0.25209617354E+02
 0.21246977236E+02 0.17805065921E+02 0.14892694292E+02 0.12485015881E+02 0.10533692220E+02
 0.89775694319E+01 0.77525621877E+01 0.67990911733E+01 0.60661061878E+01 0.55119947812E+01
 0.51035779809E+01 0.48145004262E+01 0.46239633980E+01 0.45163252353E+01 0.44816015493E+01
 0.45163252353E+01 0.46239633980E+01 0.48145004262E+01 0.51035779809E+01 0.55119947812E+01
 0.60661061878E+01 0.67990911733E+01 0.77525621877E+01 0.89775694319E+01 0.10533692220E+02
 0.12485015881E+02 0.14892694292E+02 0.17805065921E+02 0.21246977236E+02 0.25209617354E+02
 0.29641324966E+02 0.34439476690E+02 0.39444276041E+02 0.44436832967E+02 0.49145447056E+02
 0.53264115290E+02 0.56484802538E+02 0.58540030093E+02 0.60921097072E+02 0.60172167188E+02
 0.57997156180E+02 0.54597679485E+02 0.50267948080E+02 0.45344601430E+02 0.40157318486E+02
 0.34991815199E+02 0.30070437131E+02 0.25548460911E+02 0.21520174422E+02 0.18028866911E+02
 0.15077275273E+02 0.12637448700E+02 0.10660220956E+02 0.90845088995E+01 0.78459960718E+01
 0.68841287792E+01 0.61464094641E+01 0.55898014005E+01 0.51800392064E+01 0.48900948678E+01
 0.46988753657E+01 0.45907359777E+01 0.45558211525E+01 0.45907359777E+01 0.46988753657E+01
 0.48900948678E+01 0.51800392064E+01 0.55898014005E+01 0.61464094641E+01 0.68841287792E+01
 0.78459960718E+01 0.90845088995E+01 0.10660220956E+02 0.12637448700E+02 0.15077275273E+02
 0.18028866911E+02 0.21520174422E+02 0.25548460911E+02 0.30070437131E+02 0.34991815199E+02
 0.40157318486E+02 0.45344601430E+02 0.50267948080E+02 0.54597679485E+02 0.57997156180E+02
 0.60172167188E+02 0.66245708601E+02 0.65371429452E+02 0.62836723357E+02 0.58890938302E+02
 0.53901438949E+02 0.48289940087E+02 0.42463732930E+02 0.36760892222E+02 0.31422968041E+02
 0.26595973931E+02 0.22349241583E+02 0.18698717156E+02 0.15625927660E+02 0.13090467609E+02
 0.11037840773E+02 0.94052314109E+01 0.81268717324E+01 0.71393740016E+01 0.63862675483E+01
 0.58205977659E+01 0.54051632095E+01 0.51111987744E+01 0.49168967048E+01 0.48066450791E+01
 0.47709580078E+01 0.48066450791E+01 0.49168967048E+01 0.51111987744E+01 0.54051632095E+01
 0.58205977659E+01 0.63862675483E+01 0.71393740016E+01 0.81268717324E+01 0.94052314109E+01
 0.11037840773E+02 0.13090467609E+02 0.15625927660E+02 0.18698717156E+02 0.22349241583E+02
 0.26595973931E+02 0.31422968041E+02 0.36760892222E+02 0.42463732930E+02 0.48289940087E+02
 0.53901438949E+02 0.58890938302E+02 0.62836723357E+02 0.65371429452E+02 0.77398688698E+02
 0.75985615556E+02 0.72141191630E+02 0.66774975140E+02 0.60601966817E+02 0.53787167717E+02
 0.46782357178E+02 0.40043505818E+02 0.33878393835E+02 0.28440131321E+02 0.23763058712E+02
 0.19812941293E+02 0.16526715759E+02 0.13833478818E+02 0.11661626678E+02 0.99400198481E+01
 0.85982531588E+01 0.75683487296E+01 0.67882303997E+01 0.62053690485E+01 0.57783660259E+01
 0.54760203484E+01 0.52755111030E+01 0.51612065092E+01 0.51240790697E+01 0.51612065092E+01
 0.52755111030E+01 0.54760203484E+01 0.57783660259E+01 0.62053690485E+01 0.67882303997E+01
 0.75683487296E+01 0.85982531588E+01 0.99400198481E+01 0.11661626678E+02 0.13833478818E+02
 0.16526715759E+02 0.19812941293E+02 0.23763058712E+02 0.28440131321E+02 0.33878393835E+02
 0.40043505818E+02 0.46782357178E+02 0.53787167717E+02 0.60601966817E+02 0.66774975140E+02
 0.72141191630E+02 0.75985615556E+02 0.11698766477E+03 0.11309558209E+03 0.10258097252E+03
 0.88452891819E+02 0.74294490437E+02 0.62622274072E+02 0.53483204143E+02 0.45160957360E+02
 0.37656890277E+02 0.31198725758E+02 0.25804956052E+02 0.21373994928E+02 0.17767067850E+02
 0.14853940006E+02 0.12525421182E+02 0.10689959010E+02 0.92667904131E+01 0.81813431062E+01
 0.73651935927E+01 0.67594438431E+01 0.63175403305E+01 0.60050096051E+01 0.57974071300E+01
 0.56786696040E+01 0.56399984250E+01 0.56786696040E+01 0.57974071300E+01 0.60050096051E+01
 0.63175403305E+01 0.67594438431E+01 0.73651935927E+01 0.81813431062E+01 0.92667904131E+01
 0.10689959010E+02 0.12525421182E+02 0.14853940006E+02 0.17767067850E+02 0.21373994928E+02
 0.25804956052E+02 0.31198725758E+02 0.37656890277E+02 0.45160957360E+02 0.53483204143E+02
 0.62622274072E+02 0.74294490437E+02 0.88452891819E+02 0.10258097252E+03 0.11309558209E+03
 0.21757880402E+03 0.20874039936E+03 0.18446255989E+03 0.15074404335E+03 0.11540575983E+03
 0.85483471762E+02 0.64744906745E+02 0.52176194637E+02 0.42862777789E+02 0.34949501826E+02
 0.28507823363E+02 0.23382815354E+02 0.19334434439E+02 0.16138683907E+02 0.13621766922E+02
 0.11655190344E+02 0.10139647040E+02 0.89911808161E+01 0.81346988913E+01 0.75047775031E+01
 0.70488784008E+01 0.67281291131E+01 0.65155366184E+01 0.63939464200E+01 0.63543204226E+01
 0.63939464200E+01 0.65155366184E+01 0.67281291131E+01 0.70488784008E+01 0.75047775031E+01
 0.81346988913E+01 0.89911808161E+01 0.10139647040E+02 0.11655190344E+02 0.13621766922E+02
 0.16138683907E+02 0.19334434439E+02 0.23382815354E+02 0.28507823363E+02 0.34949501826E+02
 0.42862777789E+02 0.52176194637E+02 0.64744906745E+02 0.85483471762E+02 0.11540575983E+03
 0.15074404335E+03 0.18446255989E+03 0.20874039936E+03 0.39718351376E+03 0.38099946613E+03
 0.33601941312E+03 0.27196621789E+03 0.20200887744E+03 0.13907898749E+03 0.92195677412E+02
 0.63845868895E+02 0.49310582084E+02 0.39625081651E+02 0.31841926068E+02 0.25814970889E+02
 0.21205472513E+02 0.17668653711E+02 0.14938514915E+02 0.12831265207E+02 0.11219355539E+02
 0.10005769576E+02 0.91083797141E+01 0.84555434311E+01 0.79883103131E+01 0.76624948333E+01
 0.74478065345E+01 0.73254518224E+01 0.72856474797E+01 0.73254518224E+01 0.74478065345E+01
 0.76624948333E+01 0.79883103131E+01 0.84555434311E+01 0.91083797141E+01 0.10005769576E+02
 0.11219355539E+02 0.12831265207E+02 0.14938514915E+02 0.17668653711E+02 0.21205472513E+02
 0.25814970889E+02 0.31841926068E+02 0.39625081651E+02 0.49310582084E+02 0.63845868895E+02
 0.92195677412E+02 0.13907898749E+03 0.20200887744E+03 0.27196621789E+03 0.33601941312E+03
 0.38099946613E+03 0.65029004330E+03 0.62494129746E+03 0.55399428864E+03 0.45141118261E+03
 0.33641782113E+03 0.22865681576E+03 0.14331730620E+03 0.87421709585E+02 0.58302939644E+02
 0.44927761733E+02 0.35654153082E+02 0.28584924223E+02 0.23326768922E+02 0.19408788386E+02
 0.16453562062E+02 0.14206445832E+02 0.12502779822E+02 0.11228808964E+02 0.10294908752E+02
 0.96237748470E+01 0.91501052274E+01 0.88239179627E+01 0.86111184566E+01 0.84907842617E+01
 0.84518248691E+01 0.84907842617E+01 0.86111184566E+01 0.88239179627E+01 0.91501052274E+01
 0.96237748470E+01 0.10294908752E+02 0.11228808964E+02 0.12502779822E+02 0.14206445832E+02
 0.16453562062E+02 0.19408788386E+02 0.23326768922E+02 0.28584924223E+02 0.35654153082E+02
 0.44927761733E+02 0.58302939644E+02 0.87421709585E+02 0.14331730620E+03 0.22865681576E+03
 0.33641782113E+03 0.45141118261E+03 0.55399428864E+03 0.62494129746E+03 0.94620215512E+03
 0.91090655598E+03 0.81174008199E+03 0.66711461042E+03 0.50249880249E+03 0.34434357224E+03
 0.21410472197E+03 0.12360857482E+03 0.72786711718E+02 0.50560621559E+02 0.39641116805E+02
 0.31521110188E+02 0.25599351334E+02 0.21300100123E+02 0.18132021941E+02 0.15762829281E+02
 0.13986120046E+02 0.12669309154E+02 0.11714950252E+02 0.11040408248E+02 0.10574004163E+02
 0.10259389118E+02 0.10057902667E+02 0.99457225091E+01 0.99097546611E+01 0.99457225091E+01
 0.10057902667E+02 0.10259389118E+02 0.10574004163E+02 0.11040408248E+02 0.11714950252E+02
 0.12669309154E+02 0.13986120046E+02 0.15762829281E+02 0.18132021941E+02 0.21300100123E+02
 0.25599351334E+02 0.31521110188E+02 0.39641116805E+02 0.50560621559E+02 0.72786711718E+02
 0.12360857482E+03 0.21410472197E+03 0.34434357224E+03 0.50249880249E+03 0.66711461042E+03
 0.81174008199E+03 0.91090655598E+03 0.12344576994E+04 0.11898499555E+04 0.10642901652E+04
 0.88037213516E+03 0.66929579712E+03 0.46359273244E+03 0.29021112609E+03 0.16522560727E+03
 0.91060165449E+02 0.57009624648E+02 0.43388420516E+02 0.34375651822E+02 0.27880968484E+02
 0.23261868005E+02 0.19929962347E+02 0.17481671714E+02 0.15671257548E+02 0.14348090922E+02
 0.13406965746E+02 0.12759686986E+02 0.12327667114E+02 0.12047292708E+02 0.11874273965E+02
 0.11780955627E+02 0.11751620998E+02 0.11780955627E+02 0.11874273965E+02 0.12047292708E+02
 0.12327667114E+02 0.12759686986E+02 0.13406965746E+02 0.14348090922E+02 0.15671257548E+02
 0.17481671714E+02 0.19929962347E+02 0.23261868005E+02 0.27880968484E+02 0.34375651822E+02
 0.43388420516E+02 0.57009624648E+02 0.91060165449E+02 0.16522560727E+03 0.29021112609E+03
 0.46359273244E+03 0.66929579712E+03 0.88037213516E+03 0.10642901652E+04 0.11898499555E+04
 0.14566859403E+04 0.14050143798E+04 0.12594728521E+04 0.10458977651E+04 0.79983780376E+03
 0.55830447411E+03 0.35217963160E+03 0.20054714490E+03 0.10765504931E+03 0.63217351867E+02
 0.46465081325E+02 0.36873348416E+02 0.30011333711E+02 0.25206375182E+02 0.21804431364E+02
 0.19350163290E+02 0.17568526448E+02 0.16294925524E+02 0.15417272169E+02 0.14841517800E+02
 0.14481689302E+02 0.14266272117E+02 0.14144465087E+02 0.14083953442E+02 0.14065939871E+02
 0.14083953442E+02 0.14144465087E+02 0.14266272117E+02 0.14481689302E+02 0.14841517800E+02
 0.15417272169E+02 0.16294925524E+02 0.17568526448E+02 0.19350163290E+02 0.21804431364E+02
 0.25206375182E+02 0.30011333711E+02 0.36873348416E+02 0.46465081325E+02 0.63217351867E+02
 0.10765504931E+03 0.20054714490E+03 0.35217963160E+03 0.55830447411E+03 0.79983780376E+03
 0.10458977651E+04 0.12594728521E+04 0.14050143798E+04 0.15631122765E+04 0.15080495104E+04
 0.13529420867E+04 0.11252404053E+04 0.86261574388E+03 0.60420093807E+03 0.38267397173E+03
 0.21845291396E+03 0.11659215482E+03 0.67014741315E+02 0.48530792968E+02 0.38780254701E+02
 0.31851430418E+02 0.27059879175E+02 0.23723852067E+02 0.21365132627E+02 0.19695551534E+02
 0.18543790391E+02 0.17793246574E+02 0.17344525320E+02 0.17104377927E+02 0.16993009755E+02
 0.16951915926E+02 0.16942609407E+02 0.16942161201E+02 0.16942609407E+02 0.16951915926E+02
 0.16993009755E+02 0.17104377927E+02 0.17344525320E+02 0.17793246574E+02 0.18543790391E+02
 0.19695551534E+02 0.21365132627E+02 0.23723852067E+02 0.27059879175E+02 0.31851430418E+02
 0.38780254701E+02 0.48530792968E+02 0.67014741315E+02 0.11659215482E+03 0.21845291396E+03
 0.38267397173E+03 0.60420093807E+03 0.86261574388E+03 0.11252404053E+04 0.13529420867E+04
 0.15080495104E+04 0.15287323969E+04 0.14746957983E+04 0.13225167073E+04 0.10992350461E+04
 0.84194746577E+03 0.58915266740E+03 0.37291996736E+03 0.21315673964E+03 0.11457827283E+03
 0.67003161162E+02 0.49387169791E+02 0.39962118455E+02 0.33318470282E+02 0.28778398666E+02
 0.25671708430E+02 0.23530620695E+02 0.22073844639E+02 0.21133271021E+02 0.20591784060E+02
 0.20345722358E+02 0.20294136663E+02 0.20346900934E+02 0.20434034380E+02 0.20506566274E+02
 0.20534266023E+02 0.20506566274E+02 0.20434034380E+02 0.20346900934E+02 0.20294136663E+02
 0.20345722358E+02 0.20591784060E+02 0.21133271021E+02 0.22073844639E+02 0.23530620695E+02
 0.25671708430E+02 0.28778398666E+02 0.33318470282E+02 0.39962118455E+02 0.49387169791E+02
 0.67003161162E+02 0.11457827283E+03 0.21315673964E+03 0.37291996736E+03 0.58915266740E+03
 0.84194746577E+03 0.10992350461E+04 0.13225167073E+04 0.14746957983E+04 0.13619455025E+04
 0.13131179732E+04 0.11757004954E+04 0.97440742669E+03 0.74319896437E+03 0.51730878289E+03
 0.32589224949E+03 0.18657941543E+03 0.10266419266E+03 0.63590377049E+02 0.49040706603E+02
 0.40410811729E+02 0.34399924740E+02 0.30350168437E+02 0.27642094080E+02 0.25851749963E+02
 0.24725899359E+02 0.24111095590E+02 0.23894455363E+02 0.23968211451E+02 0.24220239221E+02
 0.24542975408E+02 0.24844959871E+02 0.25056380079E+02 0.25132149367E+02 0.25056380079E+02
 0.24844959871E+02 0.24542975408E+02 0.24220239221E+02 0.23968211451E+02 0.23894455363E+02
 0.24111095590E+02 0.24725899359E+02 0.25851749963E+02 0.27642094080E+02 0.30350168437E+02
 0.34399924740E+02 0.40410811729E+02 0.49040706603E+02 0.63590377049E+02 0.10266419266E+03
 0.18657941543E+03 0.32589224949E+03 0.51730878289E+03 0.74319896437E+03 0.97440742669E+03
 0.11757004954E+04 0.13131179732E+04 0.11011927960E+04 0.10606526241E+04 0.94672943160E+03
 0.78044254041E+03 0.59071666963E+03 0.40747582708E+03 0.25509242493E+03 0.14747214855E+03
 0.85659177136E+02 0.58640121602E+02 0.47666098016E+02 0.40231955352E+02 0.35141738953E+02
 0.31785909155E+02 0.29633420653E+02 0.28333766996E+02 0.27681656010E+02 0.27550128205E+02
 0.27835166897E+02 0.28422403591E+02 0.29178555069E+02 0.29961447798E+02 0.30636430560E+02
 0.31091734827E+02 0.31252370769E+02 0.31091734827E+02 0.30636430560E+02 0.29961447798E+02
 0.29178555069E+02 0.28422403591E+02 0.27835166897E+02 0.27550128205E+02 0.27681656010E+02
 0.28333766996E+02 0.29633420653E+02 0.31785909155E+02 0.35141738953E+02 0.40231955352E+02
 0.47666098016E+02 0.58640121602E+02 0.85659177136E+02 0.14747214855E+03 0.25509242493E+03
 0.40747582708E+03 0.59071666963E+03 0.78044254041E+03 0.94672943160E+03 0.10606526241E+04
 0.80171065961E+03 0.77099025350E+03 0.68492541912E+03 0.56016779258E+03 0.41958075917E+03
 0.28655766077E+03 0.17950113746E+03 0.10770435003E+03 0.69592437743E+02 0.53932288458E+02
 0.45566853515E+02 0.39600286685E+02 0.35619381616E+02 0.33105745000E+02 0.31648820402E+02
 0.30995133441E+02 0.31005497171E+02 0.31591704404E+02 0.32661771356E+02 0.34085120535E+02
 0.35683528127E+02 0.37245459416E+02 0.38554927450E+02 0.39425336546E+02 0.39730356810E+02
 0.39425336546E+02 0.38554927450E+02 0.37245459416E+02 0.35683528127E+02 0.34085120535E+02
 0.32661771356E+02 0.31591704404E+02 0.31005497171E+02 0.30995133441E+02 0.31648820402E+02
 0.33105745000E+02 0.35619381616E+02 0.39600286685E+02 0.45566853515E+02 0.53932288458E+02
 0.69592437743E+02 0.10770435003E+03 0.17950113746E+03 0.28655766077E+03 0.41958075917E+03
 0.56016779258E+03 0.68492541912E+03 0.77099025350E+03 0.51904732543E+03 0.49814204598E+03
 0.43990760540E+03 0.35654243633E+03 0.26461758506E+03 0.18062650583E+03 0.11663951930E+03
 0.77199544696E+02 0.58354218405E+02 0.49464885881E+02 0.43094621806E+02 0.38699926005E+02
 0.35907412278E+02 0.34331641057E+02 0.33705362461E+02 0.33891015028E+02 0.34833412301E+02
 0.36493441415E+02 0.38784018936E+02 0.41527703239E+02 0.44451340689E+02 0.47219100413E+02
 0.49489898613E+02 0.50995973360E+02 0.51536215757E+02 0.50995973360E+02 0.49489898613E+02
 0.47219100413E+02 0.44451340689E+02 0.41527703239E+02 0.38784018936E+02 0.36493441415E+02
 0.34833412301E+02 0.33891015028E+02 0.33705362461E+02 0.34331641057E+02 0.35907412278E+02
 0.38699926005E+02 0.43094621806E+02 0.49464885881E+02 0.58354218405E+02 0.77199544696E+02
 0.11663951930E+03 0.18062650583E+03 0.26461758506E+03 0.35654243633E+03 0.43990760540E+03
 0.49814204598E+03 0.29518217890E+03 0.28282616537E+03 0.24875108927E+03 0.20102199515E+03
 0.15031338864E+03 0.10663568667E+03 0.76221345867E+02 0.59528380087E+02 0.51100627818E+02
 0.44969021064E+02 0.40550101963E+02 0.37672982366E+02 0.36060398129E+02 0.35486945147E+02
 0.35842812745E+02 0.37123323272E+02 0.39371387484E+02 0.42590662143E+02 0.46657333645E+02
 0.51272856724E+02 0.56444514370E+02 0.62897255557E+02 0.69810890035E+02 0.75225877204E+02
 0.77280761703E+02 0.75225877204E+02 0.69810890035E+02 0.62897255557E+02 0.56444514370E+02
 0.51272856724E+02 0.46657333645E+02 0.42590662143E+02 0.39371387484E+02 0.37123323272E+02
 0.35842812745E+02 0.35486945147E+02 0.36060398129E+02 0.37672982366E+02 0.40550101963E+02
 0.44969021064E+02 0.51100627818E+02 0.59528380087E+02 0.76221345867E+02 0.10663568667E+03
 0.15031338864E+03 0.20102199515E+03 0.24875108927E+03 0.28282616537E+03 0.14974956771E+03
 0.14380753057E+03 0.12770579616E+03 0.10598717730E+03 0.84327297333E+02 0.67349753411E+02
 0.56690546504E+02 0.50094238263E+02 0.44800389085E+02 0.40804919038E+02 0.38114753429E+02
 0.36595872861E+02 0.36108352107E+02 0.36595872861E+02 0.38114753429E+02 0.40804919038E+02
 0.44800389085E+02 0.50094238263E+02 0.56690546504E+02 0.67349753411E+02 0.84327297333E+02
 0.10598717730E+03 0.12770579616E+03 0.14380753057E+03 0.14974956771E+03 0.14380753057E+03
 0.12770579616E+03 0.10598717730E+03 0.84327297333E+02 0.67349753411E+02 0.56690546504E+02
 0.50094238263E+02 0.44800389085E+02 0.40804919038E+02 0.38114753429E+02 0.36595872861E+02
 0.36108352107E+02 0.36595872861E+02 0.38114753429E+02 0.40804919038E+02 0.44800389085E+02
 0.50094238263E+02 0.56690546504E+02 0.67349753411E+02 0.84327297333E+02 0.10598717730E+03
 0.12770579616E+03 0.14380753057E+03 0.77280761703E+02 0.75225877204E+02 0.69810890035E+02
 0.62897255557E+02 0.56444514370E+02 0.51272856724E+02 0.46657333645E+02 0.42590662143E+02
 0.39371387484E+02 0.37123323272E+02 0.35842812745E+02 0.35486945147E+02 0.36060398129E+02
 0.37672982366E+02 0.40550101963E+02 0.44969021064E+02 0.51100627818E+02 0.59528380087E+02
 0.76221345867E+02 0.10663568667E+03 0.15031338864E+03 0.20102199515E+03 0.24875108927E+03
 0.28282616537E+03 0.29518217890E+03 0.28282616537E+03 0.24875108927E+03 0.20102199515E+03
 0.15031338864E+03 0.10663568667E+03 0.76221345867E+02 0.59528380087E+02 0.51100627818E+02
 0.44969021064E+02 0.40550101963E+02 0.37672982366E+02 0.36060398129E+02 0.35486945147E+02
 0.35842812745E+02 0.37123323272E+02 0.39371387484E+02 0.42590662143E+02 0.46657333645E+02
 0.51272856724E+02 0.56444514370E+02 0.62897255557E+02 0.69810890035E+02 0.75225877204E+02
 0.51536215757E+02 0.50995973360E+02 0.49489898613E+02 0.47219100413E+02 0.44451340689E+02
 0.41527703239E+02 0.38784018936E+02 0.36493441415E+02 0.34833412301E+02 0.33891015028E+02
 0.33705362461E+02 0.34331641057E+02 0.35907412278E+02 0.38699926005E+02 0.43094621806E+02
 0.49464885881E+02 0.58354218405E+02 0.77199544696E+02 0.11663951930E+03 0.18062650583E+03
 0.26461758506E+03 0.35654243633E+03 0.43990760540E+03 0.49814204598E+03 0.51904732543E+03
 0.49814204598E+03 0.43990760540E+03 0.35654243633E+03 0.26461758506E+03 0.18062650583E+03
 0.11663951930E+03 0.77199544696E+02 0.58354218405E+02 0.49464885881E+02 0.43094621806E+02
 0.38699926005E+02 0.35907412278E+02 0.34331641057E+02 0.33705362461E+02 0.33891015028E+02
 0.34833412301E+02 0.36493441415E+02 0.38784018936E+02 0.41527703239E+02 0.44451340689E+02
 0.47219100413E+02 0.49489898613E+02 0.50995973360E+02 0.39730356810E+02 0.39425336546E+02
 0.38554927450E+02 0.37245459416E+02 0.35683528127E+02 0.34085120535E+02 0.32661771356E+02
 0.31591704404E+02 0.31005497171E+02 0.30995133441E+02 0.31648820402E+02 0.33105745000E+02
 0.35619381616E+02 0.39600286685E+02 0.45566853515E+02 0.53932288458E+02 0.69592437743E+02
 0.10770435003E+03 0.17950113746E+03 0.28655766077E+03 0.41958075917E+03 0.56016779258E+03
 0.68492541912E+03 0.77099025350E+03 0.80171065961E+03 0.77099025350E+03 0.68492541912E+03
 0.56016779258E+03 0.41958075917E+03 0.28655766077E+03 0.17950113746E+03 0.10770435003E+03
 0.69592437743E+02 0.53932288458E+02 0.45566853515E+02 0.39600286685E+02 0.35619381616E+02
 0.33105745000E+02 0.31648820402E+02 0.30995133441E+02 0.31005497171E+02 0.31591704404E+02
 0.32661771356E+02 0.34085120535E+02 0.35683528127E+02 0.37245459416E+02 0.38554927450E+02
 0.39425336546E+02 0.31252370769E+02 0.31091734827E+02 0.30636430560E+02 0.29961447798E+02
 0.29178555069E+02 0.28422403591E+02 0.27835166897E+02 0.27550128205E+02 0.27681656010E+02
 0.28333766996E+02 0.29633420653E+02 0.31785909155E+02 0.35141738953E+02 0.40231955352E+02
 0.47666098016E+02 0.58640121602E+02 0.85659177136E+02 0.14747214855E+03 0.25509242493E+03
 0.40747582708E+03 0.59071666963E+03 0.78044254041E+03 0.94672943160E+03 0.10606526241E+04
 0.11011927960E+04 0.10606526241E+04 0.94672943160E+03 0.78044254041E+03 0.59071666963E+03
 0.40747582708E+03 0.25509242493E+03 0.14747214855E+03 0.85659177136E+02 0.58640121602E+02
 0.47666098016E+02 0.40231955352E+02 0.35141738953E+02 0.31785909155E+02 0.29633420653E+02
 0.28333766996E+02 0.27681656010E+02 0.27550128205E+02 0.27835166897E+02 0.28422403591E+02
 0.29178555069E+02 0.29961447798E+02 0.30636430560E+02 0.31091734827E+02 0.25132149367E+02
 0.25056380079E+02 0.24844959871E+02 0.24542975408E+02 0.24220239221E+02 0.23968211451E+02
 0.23894455363E+02 0.24111095590E+02 0.24725899359E+02 0.25851749963E+02 0.27642094080E+02
 0.30350168437E+02 0.34399924740E+02 0.40410811729E+02 0.49040706603E+02 0.63590377049E+02
 0.10266419266E+03 0.18657941543E+03 0.32589224949E+03 0.51730878289E+03 0.74319896437E+03
 0.97440742669E+03 0.11757004954E+04 0.13131179732E+04 0.13619455025E+04 0.13131179732E+04
 0.11757004954E+04 0.97440742669E+03 0.74319896437E+03 0.51730878289E+03 0.32589224949E+03
 0.18657941543E+03 0.10266419266E+03 0.63590377049E+02 0.49040706603E+02 0.40410811729E+02
 0.34399924740E+02 0.30350168437E+02 0.27642094080E+02 0.25851749963E+02 0.24725899359E+02
 0.24111095590E+02 0.23894455363E+02 0.23968211451E+02 0.24220239221E+02 0.24542975408E+02
 0.24844959871E+02 0.25056380079E+02 0.20534266023E+02 0.20506566274E+02 0.20434034380E+02
 0.20346900934E+02 0.20294136663E+02 0.20345722358E+02 0.20591784060E+02 0.21133271021E+02
 0.22073844639E+02 0.23530620695E+02 0.25671708430E+02 0.28778398666E+02 0.33318470282E+02
 0.39962118455E+02 0.49387169791E+02 0.67003161162E+02 0.11457827283E+03 0.21315673964E+03
 0.37291996736E+03 0.58915266740E+03 0.84194746577E+03 0.10992350461E+04 0.13225167073E+04
 0.14746957983E+04 0.15287323969E+04 0.14746957983E+04 0.13225167073E+04 0.10992350461E+04
 0.84194746577E+03 0.58915266740E+03 0.37291996736E+03 0.21315673964E+03 0.11457827283E+03
 0.67003161162E+02 0.49387169791E+02 0.39962118455E+02 0.33318470282E+02 0.28778398666E+02
 0.25671708430E+02 0.23530620695E+02 0.22073844639E+02 0.21133271021E+02 0.20591784060E+02
 0.20345722358E+02 0.20294136663E+02 0.20346900934E+02 0.20434034380E+02 0.20506566274E+02
 0.16942161201E+02 0.16942609407E+02 0.16951915926E+02 0.16993009755E+02 0.17104377927E+02
 0.17344525320E+02 0.17793246574E+02 0.18543790391E+02 0.19695551534E+02 0.21365132627E+02
 0.23723852067E+02 0.27059879175E+02 0.31851430418E+02 0.38780254701E+02 0.48530792967E+02
 0.67014741315E+02 0.11659215482E+03 0.21845291396E+03 0.38267397173E+03 0.60420093807E+03
 0.86261574388E+03 0.11252404053E+04 0.13529420867E+04 0.15080495104E+04 0.15631122765E+04
 0.15080495104E+04 0.13529420867E+04 0.11252404053E+04 0.86261574388E+03 0.60420093807E+03
 0.38267397173E+03 0.21845291396E+03 0.11659215482E+03 0.67014741315E+02 0.48530792967E+02
 0.38780254701E+02 0.31851430418E+02 0.27059879175E+02 0.23723852067E+02 0.21365132627E+02
 0.19695551534E+02 0.18543790391E+02 0.17793246574E+02 0.17344525320E+02 0.17104377927E+02
 0.16993009755E+02 0.16951915926E+02 0.16942609407E+02 0.14065939871E+02 0.14083953442E+02
 0.14144465087E+02 0.14266272117E+02 0.14481689302E+02 0.14841517800E+02 0.15417272169E+02
 0.16294925524E+02 0.17568526448E+02 0.19350163290E+02 0.21804431364E+02 0.25206375182E+02
 0.30011333711E+02 0.36873348416E+02 0.46465081325E+02 0.63217351867E+02 0.10765504931E+03
 0.20054714490E+03 0.35217963160E+03 0.55830447411E+03 0.79983780376E+03 0.10458977651E+04
 0.12594728521E+04 0.14050143798E+04 0.14566859403E+04 0.14050143798E+04 0.12594728521E+04
 0.10458977651E+04 0.79983780376E+03 0.55830447411E+03 0.35217963160E+03 0.20054714490E+03
 0.10765504931E+03 0.63217351867E+02 0.46465081325E+02 0.36873348416E+02 0.30011333711E+02
 0.25206375182E+02 0.21804431364E+02 0.19350163290E+02 0.17568526448E+02 0.16294925524E+02
 0.15417272169E+02 0.14841517800E+02 0.14481689302E+02 0.14266272117E+02 0.14144465087E+02
 0.14083953442E+02 0.11751620998E+02 0.11780955627E+02 0.11874273965E+02 0.12047292708E+02
 0.12327667114E+02 0.12759686986E+02 0.13406965746E+02 0.14348090922E+02 0.15671257548E+02
 0.17481671714E+02 0.19929962347E+02 0.23261868005E+02 0.27880968484E+02 0.34375651822E+02
 0.43388420516E+02 0.57009624648E+02 0.91060165449E+02 0.16522560727E+03 0.29021112609E+03
 0.46359273244E+03 0.66929579712E+03 0.88037213516E+03 0.10642901652E+04 0.11898499555E+04
 0.12344576994E+04 0.11898499555E+04 0.10642901652E+04 0.88037213516E+03 0.66929579712E+03
 0.46359273244E+03 0.29021112609E+03 0.16522560727E+03 0.91060165449E+02 0.57009624648E+02
 0.43388420516E+02 0.34375651822E+02 0.27880968484E+02 0.23261868005E+02 0.19929962347E+02
 0.17481671714E+02 0.15671257548E+02 0.14348090922E+02 0.13406965746E+02 0.12759686986E+02
 0.12327667114E+02 0.12047292708E+02 0.11874273965E+02 0.11780955627E+02 0.99097546611E+01
 0.99457225091E+01 0.10057902667E+02 0.10259389118E+02 0.10574004163E+02 0.11040408248E+02
 0.11714950252E+02 0.12669309154E+02 0.13986120046E+02 0.15762829281E+02 0.18132021941E+02
 0.21300100123E+02 0.25599351334E+02 0.31521110188E+02 0.39641116805E+02 0.50560621559E+02
 0.72786711718E+02 0.12360857482E+03 0.21410472197E+03 0.34434357224E+03 0.50249880249E+03
 0.66711461042E+03 0.81174008199E+03 0.91090655598E+03 0.94620215512E+03 0.91090655598E+03
 0.81174008199E+03 0.66711461042E+03 0.50249880249E+03 0.34434357224E+03 0.21410472197E+03
 0.12360857482E+03 0.72786711718E+02 0.50560621559E+02 0.39641116805E+02 0.31521110188E+02
 0.25599351334E+02 0.21300100123E+02 0.18132021941E+02 0.15762829281E+02 0.13986120046E+02
 0.12669309154E+02 0.11714950252E+02 0.11040408248E+02 0.10574004163E+02 0.10259389118E+02
 0.10057902667E+02 0.99457225091E+01 0.84518248691E+01 0.84907842617E+01 0.86111184566E+01
 0.88239179627E+01 0.91501052274E+01 0.96237748470E+01 0.10294908752E+02 0.11228808964E+02
 0.12502779822E+02 0.14206445832E+02 0.16453562062E+02 0.19408788386E+02 0.23326768922E+02
 0.28584924223E+02 0.35654153082E+02 0.44927761733E+02 0.58302939644E+02 0.87421709585E+02
 0.14331730620E+03 0.22865681576E+03 0.33641782113E+03 0.45141118261E+03 0.55399428864E+03
 0.62494129746E+03 0.65029004330E+03 0.62494129746E+03 0.55399428864E+03 0.45141118261E+03
 0.33641782113E+03 0.22865681576E+03 0.14331730620E+03 0.87421709585E+02 0.58302939644E+02
 0.44927761733E+02 0.35654153082E+02 0.28584924223E+02 0.23326768922E+02 0.19408788386E+02
 0.16453562062E+02 0.14206445832E+02 0.12502779822E+02 0.11228808964E+02 0.10294908752E+02
 0.96237748470E+01 0.91501052274E+01 0.88239179627E+01 0.86111184566E+01 0.84907842617E+01
 0.72856474797E+01 0.73254518224E+01 0.74478065345E+01 0.76624948333E+01 0.79883103131E+01
 0.84555434311E+01 0.91083797141E+01 0.10005769576E+02 0.11219355539E+02 0.12831265207E+02
 0.14938514915E+02 0.17668653711E+02 0.21205472513E+02 0.25814970889E+02 0.31841926068E+02
 0.39625081651E+02 0.49310582084E+02 0.63845868895E+02 0.92195677412E+02 0.13907898749E+03
 0.20200887744E+03 0.27196621789E+03 0.33601941312E+03 0.38099946613E+03 0.39718351376E+03
 0.38099946613E+03 0.33601941312E+03 0.27196621789E+03 0.20200887744E+03 0.13907898749E+03
 0.92195677412E+02 0.63845868895E+02 0.49310582084E+02 0.39625081651E+02 0.31841926068E+02
 0.25814970889E+02 0.21205472513E+02 0.17668653711E+02 0.14938514915E+02 0.12831265207E+02
 0.11219355539E+02 0.10005769576E+02 0.91083797141E+01 0.84555434311E+01 0.79883103131E+01
 0.76624948333E+01 0.74478065345E+01 0.73254518224E+01 0.63543204226E+01 0.63939464200E+01
 0.65155366184E+01 0.67281291131E+01 0.70488784008E+01 0.75047775031E+01 0.81346988913E+01
 0.89911808161E+01 0.10139647040E+02 0.11655190344E+02 0.13621766922E+02 0.16138683907E+02
 0.19334434439E+02 0.23382815354E+02 0.28507823363E+02 0.34949501826E+02 0.42862777789E+02
 0.52176194637E+02 0.64744906745E+02 0.85483471762E+02 0.11540575983E+03 0.15074404335E+03
 0.18446255989E+03 0.20874039936E+03 0.21757880402E+03 0.20874039936E+03 0.18446255989E+03
 0.15074404335E+03 0.11540575983E+03 0.85483471762E+02 0.64744906745E+02 0.52176194637E+02
 0.42862777789E+02 0.34949501826E+02 0.28507823363E+02 0.23382815354E+02 0.19334434439E+02
 0.16138683907E+02 0.13621766922E+02 0.11655190344E+02 0.10139647040E+02 0.89911808161E+01
 0.81346988913E+01 0.75047775031E+01 0.70488784008E+01 0.67281291131E+01 0.65155366184E+01
 0.63939464200E+01 0.56399984250E+01 0.56786696040E+01 0.57974071300E+01 0.60050096051E+01
 0.63175403305E+01 0.67594438431E+01 0.73651935927E+01 0.81813431062E+01 0.92667904131E+01
 0.10689959010E+02 0.12525421182E+02 0.14853940006E+02 0.17767067850E+02 0.21373994928E+02
 0.25804956052E+02 0.31198725758E+02 0.37656890277E+02 0.45160957360E+02 0.53483204143E+02
 0.62622274072E+02 0.74294490437E+02 0.88452891819E+02 0.10258097252E+03 0.11309558209E+03
 0.11698766477E+03 0.11309558209E+03 0.10258097252E+03 0.88452891819E+02 0.74294490437E+02
 0.62622274072E+02 0.53483204143E+02 0.45160957360E+02 0.37656890277E+02 0.31198725758E+02
 0.25804956052E+02 0.21373994928E+02 0.17767067850E+02 0.14853940006E+02 0.12525421182E+02
 0.10689959010E+02 0.92667904131E+01 0.81813431062E+01 0.73651935927E+01 0.67594438431E+01
 0.63175403305E+01 0.60050096051E+01 0.57974071300E+01 0.56786696040E+01 0.51240790697E+01
 0.51612065092E+01 0.52755111030E+01 0.54760203484E+01 0.57783660259E+01 0.62053690485E+01
 0.67882303997E+01 0.75683487296E+01 0.85982531588E+01 0.99400198481E+01 0.11661626678E+02
 0.13833478818E+02 0.16526715759E+02 0.19812941293E+02 0.23763058712E+02 0.28440131321E+02
 0.33878393835E+02 0.40043505818E+02 0.46782357178E+02 0.53787167717E+02 0.60601966817E+02
 0.66774975140E+02 0.72141191630E+02 0.75985615556E+02 0.77398688698E+02 0.75985615556E+02
 0.72141191630E+02 0.66774975140E+02 0.60601966817E+02 0.53787167717E+02 0.46782357178E+02
 0.40043505818E+02 0.33878393835E+02 0.28440131321E+02 0.23763058712E+02 0.19812941293E+02