   8   8   0   0
  0.2035890E+02  0.4566890E-09  0.7753300E-09  0.4599780E-09  0.5000000E-15
  1.000000000000000E-004
  CAR 
 Ga                                      
     27.66104351    -12.25295318  301      4.69305216      1.00000000
    -12.253  0.0000E+00  0.0000E+00
    -12.120  0.0000E+00  0.0000E+00
    -11.987  0.0000E+00  0.0000E+00
    -11.854  0.0000E+00  0.0000E+00
    -11.721  0.0000E+00  0.0000E+00
    -11.588  0.0000E+00  0.0000E+00
    -11.455  0.0000E+00  0.0000E+00
    -11.322  0.0000E+00  0.0000E+00
    -11.189  0.0000E+00  0.0000E+00
    -11.056  0.0000E+00  0.0000E+00
    -10.922  0.0000E+00  0.0000E+00
    -10.789  0.0000E+00  0.0000E+00
    -10.656  0.5410E-09  0.7198E-10
    -10.523  0.3513E-01  0.4674E-02
    -10.390  0.4246E+02  0.5653E+01
    -10.257  0.1677E+03  0.2796E+02
    -10.124  0.1278E+03  0.4497E+02
     -9.991  0.1606E+03  0.6633E+02
     -9.858  0.1003E+03  0.7968E+02
     -9.725  0.2413E+01  0.8000E+02
     -9.592  0.8386E-05  0.8000E+02
     -9.459  0.0000E+00  0.8000E+02
     -9.326  0.0000E+00  0.8000E+02
     -9.193  0.0000E+00  0.8000E+02
     -9.060  0.0000E+00  0.8000E+02
     -8.927  0.0000E+00  0.8000E+02
     -8.794  0.0000E+00  0.8000E+02
     -8.661  0.0000E+00  0.8000E+02
     -8.528  0.0000E+00  0.8000E+02
     -8.395  0.0000E+00  0.8000E+02
     -8.262  0.0000E+00  0.8000E+02
     -8.129  0.0000E+00  0.8000E+02
     -7.995  0.0000E+00  0.8000E+02
     -7.862  0.0000E+00  0.8000E+02
     -7.729  0.0000E+00  0.8000E+02
     -7.596  0.0000E+00  0.8000E+02
     -7.463  0.0000E+00  0.8000E+02
     -7.330  0.0000E+00  0.8000E+02
     -7.197  0.0000E+00  0.8000E+02
     -7.064  0.0000E+00  0.8000E+02
     -6.931  0.0000E+00  0.8000E+02
     -6.798  0.0000E+00  0.8000E+02
     -6.665  0.0000E+00  0.8000E+02
     -6.532  0.0000E+00  0.8000E+02
     -6.399  0.0000E+00  0.8000E+02
     -6.266  0.4506E-09  0.8000E+02
     -6.133  0.1268E-02  0.8000E+02
     -6.000  0.9437E-01  0.8001E+02
     -5.867  0.4457E+00  0.8007E+02
     -5.734  0.6212E+00  0.8015E+02
     -5.601  0.5776E+00  0.8023E+02
     -5.468  0.1099E+01  0.8038E+02
     -5.335  0.1010E+01  0.8051E+02
     -5.201  0.7402E+00  0.8061E+02
     -5.068  0.1026E+01  0.8075E+02
     -4.935  0.1497E+01  0.8095E+02
     -4.802  0.1413E+01  0.8113E+02
     -4.669  0.1173E+01  0.8129E+02
     -4.536  0.1845E+01  0.8154E+02
     -4.403  0.1347E+01  0.8171E+02
     -4.270  0.1806E+01  0.8196E+02
     -4.137  0.1362E+01  0.8214E+02
     -4.004  0.2490E+01  0.8247E+02
     -3.871  0.1560E+01  0.8268E+02
     -3.738  0.2082E+01  0.8295E+02
     -3.605  0.1561E+01  0.8316E+02
     -3.472  0.1421E+01  0.8335E+02
     -3.339  0.1392E+01  0.8353E+02
     -3.206  0.2013E+01  0.8380E+02
     -3.073  0.2139E+01  0.8409E+02
     -2.940  0.2185E+01  0.8438E+02
     -2.807  0.1478E+01  0.8457E+02
     -2.674  0.2116E+01  0.8486E+02
     -2.541  0.1878E+01  0.8511E+02
     -2.408  0.1799E+01  0.8534E+02
     -2.274  0.2001E+01  0.8561E+02
     -2.141  0.2380E+01  0.8593E+02
     -2.008  0.1848E+01  0.8617E+02
     -1.875  0.2574E+01  0.8652E+02
     -1.742  0.1651E+01  0.8674E+02
     -1.609  0.2581E+01  0.8708E+02
     -1.476  0.2562E+01  0.8742E+02
     -1.343  0.2076E+01  0.8770E+02
     -1.210  0.1324E+01  0.8787E+02
     -1.077  0.2556E+01  0.8821E+02
     -0.944  0.1599E+01  0.8843E+02
     -0.811  0.1923E+01  0.8868E+02
     -0.678  0.2289E+01  0.8899E+02
     -0.545  0.3652E+01  0.8947E+02
     -0.412  0.3578E+01  0.8995E+02
     -0.279  0.2423E+01  0.9027E+02
     -0.146  0.2048E+01  0.9054E+02
     -0.013  0.2495E+01  0.9087E+02
      0.120  0.2431E+01  0.9120E+02
      0.253  0.1890E+01  0.9145E+02
      0.386  0.2289E+01  0.9175E+02
      0.520  0.2581E+01  0.9210E+02
      0.653  0.2100E+01  0.9238E+02
      0.786  0.1720E+01  0.9261E+02
      0.919  0.1749E+01  0.9284E+02
      1.052  0.1848E+01  0.9308E+02
      1.185  0.1671E+01  0.9331E+02
      1.318  0.2369E+01  0.9362E+02
      1.451  0.2978E+01  0.9402E+02
      1.584  0.2740E+01  0.9438E+02
      1.717  0.2237E+01  0.9468E+02
      1.850  0.3164E+01  0.9510E+02
      1.983  0.2877E+01  0.9548E+02
      2.116  0.2657E+01  0.9584E+02
      2.249  0.2949E+01  0.9623E+02
      2.382  0.2473E+01  0.9656E+02
      2.515  0.1734E+01  0.9679E+02
      2.648  0.2393E+01  0.9711E+02
      2.781  0.3696E+01  0.9760E+02
      2.914  0.3943E+01  0.9812E+02
      3.047  0.3770E+01  0.9863E+02
      3.180  0.3909E+01  0.9915E+02
      3.314  0.3999E+01  0.9968E+02
      3.447  0.3848E+01  0.1002E+03
      3.580  0.3899E+01  0.1007E+03
      3.713  0.3914E+01  0.1012E+03
      3.846  0.3956E+01  0.1018E+03
      3.979  0.3468E+01  0.1022E+03
      4.112  0.3818E+01  0.1027E+03
      4.245  0.2205E+01  0.1030E+03
      4.378  0.1869E+01  0.1033E+03
      4.511  0.2244E+01  0.1036E+03
      4.644  0.2401E+01  0.1039E+03
      4.777  0.1930E+01  0.1041E+03
      4.910  0.1802E+01  0.1044E+03
      5.043  0.1712E+01  0.1046E+03
      5.176  0.2520E+01  0.1049E+03
      5.309  0.2216E+01  0.1052E+03
      5.442  0.2906E+01  0.1056E+03
      5.575  0.3557E+01  0.1061E+03
      5.708  0.5286E+01  0.1068E+03
      5.841  0.3755E+01  0.1073E+03
      5.974  0.3930E+01  0.1078E+03
      6.107  0.3349E+01  0.1083E+03
      6.241  0.3652E+01  0.1088E+03
      6.374  0.3342E+01  0.1092E+03
      6.507  0.3396E+01  0.1097E+03
      6.640  0.4400E+01  0.1102E+03
      6.773  0.2546E+01  0.1106E+03
      6.906  0.2875E+01  0.1110E+03
      7.039  0.2192E+01  0.1113E+03
      7.172  0.3434E+01  0.1117E+03
      7.305  0.4727E+01  0.1123E+03
      7.438  0.3985E+01  0.1129E+03
      7.571  0.4689E+01  0.1135E+03
      7.704  0.4394E+01  0.1141E+03
      7.837  0.4201E+01  0.1146E+03
      7.970  0.2896E+01  0.1150E+03
      8.103  0.2974E+01  0.1154E+03
      8.236  0.3822E+01  0.1159E+03
      8.369  0.3447E+01  0.1164E+03
      8.502  0.4107E+01  0.1169E+03
      8.635  0.4567E+01  0.1175E+03
      8.768  0.4488E+01  0.1181E+03
      8.901  0.3735E+01  0.1186E+03
      9.035  0.4706E+01  0.1193E+03
      9.168  0.3862E+01  0.1198E+03
      9.301  0.4023E+01  0.1203E+03
      9.434  0.5151E+01  0.1210E+03
      9.567  0.3471E+01  0.1215E+03
      9.700  0.4733E+01  0.1221E+03
      9.833  0.4169E+01  0.1226E+03
      9.966  0.4030E+01  0.1232E+03
     10.099  0.3900E+01  0.1237E+03
     10.232  0.3744E+01  0.1242E+03
     10.365  0.3962E+01  0.1247E+03
     10.498  0.4428E+01  0.1253E+03
     10.631  0.4093E+01  0.1259E+03
     10.764  0.4860E+01  0.1265E+03
     10.897  0.4283E+01  0.1271E+03
     11.030  0.3432E+01  0.1275E+03
     11.163  0.2626E+01  0.1279E+03
     11.296  0.3698E+01  0.1284E+03
     11.429  0.4343E+01  0.1289E+03
     11.562  0.3809E+01  0.1295E+03
     11.695  0.4612E+01  0.1301E+03
     11.828  0.5633E+01  0.1308E+03
     11.962  0.4427E+01  0.1314E+03
     12.095  0.4714E+01  0.1320E+03
     12.228  0.4330E+01  0.1326E+03
     12.361  0.3124E+01  0.1330E+03
     12.494  0.4507E+01  0.1336E+03
     12.627  0.3815E+01  0.1341E+03
     12.760  0.4943E+01  0.1348E+03
     12.893  0.3184E+01  0.1352E+03
     13.026  0.5118E+01  0.1359E+03
     13.159  0.7914E+01  0.1369E+03
     13.292  0.5804E+01  0.1377E+03
     13.425  0.3593E+01  0.1382E+03
     13.558  0.3596E+01  0.1387E+03
     13.691  0.3591E+01  0.1391E+03
     13.824  0.3794E+01  0.1397E+03
     13.957  0.3549E+01  0.1401E+03
     14.090  0.5070E+01  0.1408E+03
     14.223  0.6156E+01  0.1416E+03
     14.356  0.6368E+01  0.1425E+03
     14.489  0.4035E+01  0.1430E+03
     14.622  0.4554E+01  0.1436E+03
     14.756  0.4811E+01  0.1443E+03
     14.889  0.5747E+01  0.1450E+03
     15.022  0.4862E+01  0.1457E+03
     15.155  0.5031E+01  0.1463E+03
     15.288  0.4607E+01  0.1469E+03
     15.421  0.4402E+01  0.1475E+03
     15.554  0.4252E+01  0.1481E+03
     15.687  0.3482E+01  0.1486E+03
     15.820  0.3403E+01  0.1490E+03
     15.953  0.4254E+01  0.1496E+03
     16.086  0.4616E+01  0.1502E+03
     16.219  0.4400E+01  0.1508E+03
     16.352  0.5880E+01  0.1516E+03
     16.485  0.4617E+01  0.1522E+03
     16.618  0.5094E+01  0.1529E+03
     16.751  0.4494E+01  0.1534E+03
     16.884  0.5018E+01  0.1541E+03
     17.017  0.4210E+01  0.1547E+03
     17.150  0.5373E+01  0.1554E+03
     17.283  0.4709E+01  0.1560E+03
     17.416  0.4959E+01  0.1567E+03
     17.549  0.4127E+01  0.1572E+03
     17.683  0.4917E+01  0.1579E+03
     17.816  0.5372E+01  0.1586E+03
     17.949  0.4919E+01  0.1593E+03
     18.082  0.4990E+01  0.1599E+03
     18.215  0.4910E+01  0.1606E+03
     18.348  0.5463E+01  0.1613E+03
     18.481  0.5962E+01  0.1621E+03
     18.614  0.5175E+01  0.1628E+03
     18.747  0.4823E+01  0.1634E+03
     18.880  0.5081E+01  0.1641E+03
     19.013  0.5923E+01  0.1649E+03
     19.146  0.5881E+01  0.1657E+03
     19.279  0.5699E+01  0.1664E+03
     19.412  0.4632E+01  0.1670E+03
     19.545  0.6238E+01  0.1679E+03
     19.678  0.5727E+01  0.1686E+03
     19.811  0.4036E+01  0.1692E+03
     19.944  0.4563E+01  0.1698E+03
     20.077  0.5020E+01  0.1704E+03
     20.210  0.4403E+01  0.1710E+03
     20.343  0.3270E+01  0.1715E+03
     20.477  0.5831E+01  0.1722E+03
     20.610  0.4900E+01  0.1729E+03
     20.743  0.4103E+01  0.1734E+03
     20.876  0.4324E+01  0.1740E+03
     21.009  0.4858E+01  0.1747E+03
     21.142  0.3967E+01  0.1752E+03
     21.275  0.4925E+01  0.1758E+03
     21.408  0.5888E+01  0.1766E+03
     21.541  0.6081E+01  0.1774E+03
     21.674  0.4758E+01  0.1781E+03
     21.807  0.5134E+01  0.1788E+03
     21.940  0.6267E+01  0.1796E+03
     22.073  0.4023E+01  0.1801E+03
     22.206  0.6549E+01  0.1810E+03
     22.339  0.5722E+01  0.1818E+03
     22.472  0.6074E+01  0.1826E+03
     22.605  0.6893E+01  0.1835E+03
     22.738  0.4918E+01  0.1841E+03
     22.871  0.5719E+01  0.1849E+03
     23.004  0.6039E+01  0.1857E+03
     23.137  0.5602E+01  0.1864E+03
     23.271  0.5093E+01  0.1871E+03
     23.404  0.5948E+01  0.1879E+03
     23.537  0.4155E+01  0.1885E+03
     23.670  0.3471E+01  0.1889E+03
     23.803  0.4344E+01  0.1895E+03
     23.936  0.2492E+01  0.1898E+03
     24.069  0.1821E+01  0.1901E+03
     24.202  0.2412E+01  0.1904E+03
     24.335  0.3086E+01  0.1908E+03
     24.468  0.1679E+01  0.1910E+03
     24.601  0.1640E+01  0.1913E+03
     24.734  0.1324E+01  0.1914E+03
     24.867  0.1375E+01  0.1916E+03
     25.000  0.9947E+00  0.1917E+03
     25.133  0.7805E+00  0.1918E+03
     25.266  0.4574E+00  0.1919E+03
     25.399  0.1815E+00  0.1919E+03
     25.532  0.2108E+00  0.1920E+03
     25.665  0.1918E+00  0.1920E+03
     25.798  0.1056E-01  0.1920E+03
     25.931  0.1064E+00  0.1920E+03
     26.064  0.9767E-03  0.1920E+03
     26.198  0.4330E-10  0.1920E+03
     26.331  0.0000E+00  0.1920E+03
     26.464  0.0000E+00  0.1920E+03
     26.597  0.0000E+00  0.1920E+03
     26.730  0.0000E+00  0.1920E+03
     26.863  0.0000E+00  0.1920E+03
     26.996  0.0000E+00  0.1920E+03
     27.129  0.0000E+00  0.1920E+03
     27.262  0.0000E+00  0.1920E+03
     27.395  0.0000E+00  0.1920E+03
     27.528  0.0000E+00  0.1920E+03
     27.661  0.0000E+00  0.1920E+03
