    8    8    1    1
  0.2035890E+02  0.4566890E-09  0.7753300E-09  0.4599780E-09  0.5000000E-15
  1.000000000000000E-004
  CAR 
 Ga                                      
    104    125     96
 
  0.0000000E+00  0.0000000E+00  0.0000000E+00  0.1953125E-02
      1        -10.438681   1.000000
      2        -10.392345   1.000000
      3        -10.391517   1.000000
      4        -10.382271   1.000000
      5        -10.379811   1.000000
      6        -10.351100   1.000000
      7        -10.346301   1.000000
      8        -10.336692   1.000000
      9        -10.331727   1.000000
     10        -10.322797   1.000000
     11        -10.300883   1.000000
     12        -10.282353   1.000000
     13        -10.243716   1.000000
     14        -10.237777   1.000000
     15        -10.235872   1.000000
     16        -10.221406   1.000000
     17        -10.202887   1.000000
     18        -10.193850   1.000000
     19        -10.171122   1.000000
     20        -10.162944   1.000000
     21        -10.153874   1.000000
     22        -10.147854   1.000000
     23        -10.144081   1.000000
     24        -10.134676   1.000000
     25        -10.130844   1.000000
     26        -10.102602   1.000000
     27        -10.084449   1.000000
     28        -10.079679   1.000000
     29        -10.031358   1.000000
     30        -10.030087   1.000000
     31        -10.006644   1.000000
     32        -10.005602   1.000000
     33         -9.990698   1.000000
     34         -9.980746   1.000000
     35         -9.979945   1.000000
     36         -9.960659   1.000000
     37         -9.957764   1.000000
     38         -9.955154   1.000000
     39         -9.954791   1.000000
     40         -9.884281   1.000000
     41         -6.070053   1.000000
     42         -4.453113   1.000000
     43         -2.328265   1.000000
     44          0.442332   1.000000
     45          0.536148   1.000000
     46          1.029607   1.000000
     47          1.598538   1.000000
     48          2.840867   1.000000
     49          2.872338   1.000000
     50          3.070623   1.000000
     51          3.193755   1.000000
     52          4.046202   1.000000
     53          5.554972   0.000000
     54          5.644836   0.000000
     55          5.802480   0.000000
     56          5.870020   0.000000
     57          5.943076   0.000000
     58          7.845260   0.000000
     59          8.345000   0.000000
     60          8.907100   0.000000
     61          9.530054   0.000000
     62          9.772411   0.000000
     63          9.854560   0.000000
     64         10.963645   0.000000
     65         11.306824   0.000000
     66         11.954562   0.000000
     67         12.097146   0.000000
     68         12.585688   0.000000
     69         12.619554   0.000000
     70         12.739307   0.000000
     71         13.030466   0.000000
     72         13.058956   0.000000
     73         13.461785   0.000000
     74         13.679570   0.000000
     75         14.236236   0.000000
     76         14.536124   0.000000
     77         14.664797   0.000000
     78         15.659337   0.000000
     79         16.996684   0.000000
     80         17.619008   0.000000
     81         18.413699   0.000000
     82         19.510575   0.000000
     83         20.496379   0.000000
     84         20.585493   0.000000
     85         20.637786   0.000000
     86         20.882752   0.000000
     87         21.236438   0.000000
     88         23.014133   0.000000
     89         23.278189   0.000000
     90         23.377362   0.000000
     91         24.054724   0.000000
     92         24.338894   0.000000
     93         24.679140   0.000000
     94         24.756071   0.000000
     95         24.937420   0.000000
     96         25.020476   0.000000
 
  0.1250000E+00 -0.1001929E-31  0.0000000E+00  0.3906250E-02
      1        -10.438014   1.000000
      2        -10.395757   1.000000
      3        -10.392356   1.000000
      4        -10.379831   1.000000
      5        -10.377769   1.000000
      6        -10.357252   1.000000
      7        -10.339249   1.000000
      8        -10.333965   1.000000
      9        -10.326882   1.000000
     10        -10.314126   1.000000
     11        -10.293968   1.000000
     12        -10.284651   1.000000
     13        -10.246370   1.000000
     14        -10.243679   1.000000
     15        -10.237504   1.000000
     16        -10.229422   1.000000
     17        -10.223625   1.000000
     18        -10.179105   1.000000
     19        -10.172323   1.000000
     20        -10.156728   1.000000
     21        -10.145517   1.000000
     22        -10.145433   1.000000
     23        -10.140682   1.000000
     24        -10.137035   1.000000
     25        -10.132508   1.000000
     26        -10.098735   1.000000
     27        -10.094830   1.000000
     28        -10.081887   1.000000
     29        -10.041159   1.000000
     30        -10.020932   1.000000
     31        -10.020584   1.000000
     32         -9.994939   1.000000
     33         -9.990284   1.000000
     34         -9.980279   1.000000
     35         -9.970235   1.000000
     36         -9.967125   1.000000
     37         -9.960347   1.000000
     38         -9.955640   1.000000
     39         -9.953193   1.000000
     40         -9.883823   1.000000
     41         -5.956529   1.000000
     42         -4.338784   1.000000
     43         -2.223442   1.000000
     44         -0.599578   1.000000
     45          0.429319   1.000000
     46          1.149774   1.000000
     47          1.239109   1.000000
     48          2.755037   1.000000
     49          2.945094   1.000000
     50          3.286160   1.000000
     51          4.126938   1.000000
     52          4.363027   1.000000
     53          4.907293   0.000000
     54          5.596391   0.000000
     55          6.015474   0.000000
     56          6.060174   0.000000
     57          6.681143   0.000000
     58          7.319445   0.000000
     59          7.363085   0.000000
     60          8.784315   0.000000
     61          8.916264   0.000000
     62          9.889132   0.000000
     63         10.918184   0.000000
     64         11.024352   0.000000
     65         11.304345   0.000000
     66         11.367969   0.000000
     67         12.204376   0.000000
     68         12.228887   0.000000
     69         12.382163   0.000000
     70         12.649807   0.000000
     71         12.917125   0.000000
     72         13.625615   0.000000
     73         13.806772   0.000000
     74         15.050427   0.000000
     75         15.205962   0.000000
     76         15.369070   0.000000
     77         15.520073   0.000000
     78         15.714006   0.000000
     79         16.500697   0.000000
     80         17.319766   0.000000
     81         17.599530   0.000000
     82         18.557592   0.000000
     83         19.921605   0.000000
     84         20.715139   0.000000
     85         21.172483   0.000000
     86         21.672543   0.000000
     87         21.929657   0.000000
     88         22.049743   0.000000
     89         22.669533   0.000000
     90         22.943631   0.000000
     91         23.590752   0.000000
     92         24.135382   0.000000
     93         24.206079   0.000000
     94         24.554273   0.000000
     95         24.627016   0.000000
     96         24.810202   0.000000
 
  0.2500000E+00 -0.2003858E-31  0.0000000E+00  0.3906250E-02
      1        -10.435359   1.000000
      2        -10.398597   1.000000
      3        -10.388889   1.000000
      4        -10.377237   1.000000
      5        -10.375241   1.000000
      6        -10.366302   1.000000
      7        -10.346578   1.000000
      8        -10.321913   1.000000
      9        -10.303005   1.000000
     10        -10.298523   1.000000
     11        -10.296505   1.000000
     12        -10.277714   1.000000
     13        -10.265462   1.000000
     14        -10.244640   1.000000
     15        -10.243242   1.000000
     16        -10.237903   1.000000
     17        -10.231625   1.000000
     18        -10.192398   1.000000
     19        -10.149741   1.000000
     20        -10.147917   1.000000
     21        -10.147132   1.000000
     22        -10.140126   1.000000
     23        -10.138044   1.000000
     24        -10.134854   1.000000
     25        -10.120543   1.000000
     26        -10.119742   1.000000
     27        -10.089461   1.000000
     28        -10.065580   1.000000
     29        -10.063643   1.000000
     30        -10.044843   1.000000
     31        -10.014348   1.000000
     32        -10.004931   1.000000
     33        -10.002512   1.000000
     34         -9.982096   1.000000
     35         -9.977847   1.000000
     36         -9.969961   1.000000
     37         -9.957698   1.000000
     38         -9.940872   1.000000
     39         -9.932744   1.000000
     40         -9.883334   1.000000
     41         -5.615032   1.000000
     42         -3.994335   1.000000
     43         -1.994426   1.000000
     44         -1.913914   1.000000
     45         -0.270571   1.000000
     46          0.296079   1.000000
     47          1.508923   1.000000
     48          3.253672   1.000000
     49          3.423435   1.000000
     50          3.523655   1.000000
     51          4.015358   1.000000
     52          4.348441   1.000000
     53          5.259075   0.000000
     54          5.605285   0.000000
     55          6.102589   0.000000
     56          6.409069   0.000000
     57          6.764453   0.000000
     58          7.001490   0.000000
     59          7.540061   0.000000
     60          7.713455   0.000000
     61          9.355707   0.000000
     62          9.686393   0.000000
     63          9.982166   0.000000
     64         10.097619   0.000000
     65         10.456359   0.000000
     66         12.561833   0.000000
     67         12.889117   0.000000
     68         12.897824   0.000000
     69         13.066064   0.000000
     70         13.484636   0.000000
     71         13.521051   0.000000
     72         14.560293   0.000000
     73         14.958076   0.000000
     74         15.474712   0.000000
     75         15.566281   0.000000
     76         15.913882   0.000000
     77         16.115177   0.000000
     78         16.479740   0.000000
     79         16.654452   0.000000
     80         17.454493   0.000000
     81         17.616862   0.000000
     82         17.794624   0.000000
     83         18.759543   0.000000
     84         19.563472   0.000000
     85         19.906446   0.000000
     86         21.410031   0.000000
     87         21.933049   0.000000
     88         22.937850   0.000000
     89         23.106824   0.000000
     90         23.369625   0.000000
     91         23.698836   0.000000
     92         23.783428   0.000000
     93         23.919503   0.000000
     94         24.250832   0.000000
     95         24.307278   0.000000
     96         24.695997   0.000000
 
  0.3750000E+00 -0.3078206E-32  0.0000000E+00  0.3906250E-02
      1        -10.428843   1.000000
      2        -10.398091   1.000000
      3        -10.389406   1.000000
      4        -10.374829   1.000000
      5        -10.372117   1.000000
      6        -10.355876   1.000000
      7        -10.351180   1.000000
      8        -10.325624   1.000000
      9        -10.325254   1.000000
     10        -10.321414   1.000000
     11        -10.282847   1.000000
     12        -10.267866   1.000000
     13        -10.246949   1.000000
     14        -10.235085   1.000000
     15        -10.233459   1.000000
     16        -10.225410   1.000000
     17        -10.216302   1.000000
     18        -10.214042   1.000000
     19        -10.151618   1.000000
     20        -10.151074   1.000000
     21        -10.149557   1.000000
     22        -10.140387   1.000000
     23        -10.137375   1.000000
     24        -10.130175   1.000000
     25        -10.117663   1.000000
     26        -10.102473   1.000000
     27        -10.088378   1.000000
     28        -10.076899   1.000000
     29        -10.076601   1.000000
     30        -10.046096   1.000000
     31        -10.036226   1.000000
     32        -10.032566   1.000000
     33        -10.028587   1.000000
     34         -9.983071   1.000000
     35         -9.966173   1.000000
     36         -9.960315   1.000000
     37         -9.954690   1.000000
     38         -9.934592   1.000000
     39         -9.908241   1.000000
     40         -9.885069   1.000000
     41         -5.044156   1.000000
     42         -3.416618   1.000000
     43         -3.223364   1.000000
     44         -1.553422   1.000000
     45         -1.418230   1.000000
     46         -0.136470   1.000000
     47          2.102857   1.000000
     48          3.144298   1.000000
     49          3.678561   1.000000
     50          3.693059   1.000000
     51          4.076092   1.000000
     52          4.635307   0.948796
     53          4.680665   0.636967
     54          5.204549   0.000000
     55          5.406484   0.000000
     56          6.487165   0.000000
     57          6.981770   0.000000
     58          7.440976   0.000000
     59          7.860555   0.000000
     60          8.534674   0.000000
     61          8.734653   0.000000
     62          9.095207   0.000000
     63          9.674819   0.000000
     64         10.355163   0.000000
     65         11.054222   0.000000
     66         13.074712   0.000000
     67         13.394060   0.000000
     68         13.718219   0.000000
     69         13.790578   0.000000
     70         14.168792   0.000000
     71         14.195169   0.000000
     72         14.471866   0.000000
     73         14.872886   0.000000
     74         14.889563   0.000000
     75         15.315488   0.000000
     76         15.363215   0.000000
     77         16.015797   0.000000
     78         16.294392   0.000000
     79         17.632102   0.000000
     80         18.890931   0.000000
     81         19.272375   0.000000
     82         19.300533   0.000000
     83         19.470979   0.000000
     84         19.769789   0.000000
     85         19.944112   0.000000
     86         20.276069   0.000000
     87         20.422148   0.000000
     88         21.373093   0.000000
     89         21.662989   0.000000
     90         22.227389   0.000000
     91         23.389282   0.000000
     92         23.410724   0.000000
     93         23.532513   0.000000
     94         23.860088   0.000000
     95         24.441102   0.000000
     96         24.665793   0.000000
 
  0.5000000E+00 -0.4007715E-31  0.0000000E+00  0.1953125E-02
      1        -10.416571   1.000000
      2        -10.416571   1.000000
      3        -10.364848   1.000000
      4        -10.364848   1.000000
      5        -10.364747   1.000000
      6        -10.364747   1.000000
      7        -10.350724   1.000000
      8        -10.350724   1.000000
      9        -10.335815   1.000000
     10        -10.335815   1.000000
     11        -10.265325   1.000000
     12        -10.265325   1.000000
     13        -10.240940   1.000000
     14        -10.240940   1.000000
     15        -10.230779   1.000000
     16        -10.230779   1.000000
     17        -10.185561   1.000000
     18        -10.185561   1.000000
     19        -10.153128   1.000000
     20        -10.153128   1.000000
     21        -10.148543   1.000000
     22        -10.148543   1.000000
     23        -10.143289   1.000000
     24        -10.143289   1.000000
     25        -10.116617   1.000000
     26        -10.116617   1.000000
     27        -10.084471   1.000000
     28        -10.084471   1.000000
     29        -10.059426   1.000000
     30        -10.059426   1.000000
     31        -10.052974   1.000000
     32        -10.052974   1.000000
     33        -10.001080   1.000000
     34        -10.001080   1.000000
     35         -9.963122   1.000000
     36         -9.963122   1.000000
     37         -9.938717   1.000000
     38         -9.938717   1.000000
     39         -9.892390   1.000000
     40         -9.892390   1.000000
     41         -4.244914   1.000000
     42         -4.244914   1.000000
     43         -2.603067   1.000000
     44         -2.603067   1.000000
     45         -0.784698   1.000000
     46         -0.784698   1.000000
     47          2.921434   1.000000
     48          2.921434   1.000000
     49          3.400349   1.000000
     50          3.400349   1.000000
     51          4.481740   1.000000
     52          4.481740   1.000000
     53          4.823064   0.000118
     54          4.823064   0.000118
     55          5.652750   0.000000
     56          5.652750   0.000000
     57          7.757260   0.000000
     58          7.757260   0.000000
     59          7.910923   0.000000
     60          7.910923   0.000000
     61          8.477472   0.000000
     62          8.477472   0.000000
     63         11.796615   0.000000
     64         11.796615   0.000000
     65         11.831900   0.000000
     66         11.831900   0.000000
     67         12.563892   0.000000
     68         12.563892   0.000000
     69         13.896591   0.000000
     70         13.896591   0.000000
     71         14.141569   0.000000
     72         14.141569   0.000000
     73         14.864399   0.000000
     74         14.864399   0.000000
     75         15.732337   0.000000
     76         15.732337   0.000000
     77         16.840396   0.000000
     78         16.840396   0.000000
     79         18.679170   0.000000
     80         18.679170   0.000000
     81         19.333104   0.000000
     82         19.333104   0.000000
     83         20.340134   0.000000
     84         20.340134   0.000000
     85         20.436382   0.000000
     86         20.436382   0.000000
     87         21.442559   0.000000
     88         21.442559   0.000000
     89         21.630257   0.000000
     90         21.630257   0.000000
     91         22.089783   0.000000
     92         22.089783   0.000000
     93         22.598403   0.000000
     94         22.598403   0.000000
     95         22.763374   0.000000
     96         22.763374   0.000000
 
  0.0000000E+00  0.1250000E+00  0.0000000E+00  0.3906250E-02
      1        -10.435761   1.000000
      2        -10.396797   1.000000
      3        -10.394113   1.000000
      4        -10.380332   1.000000
      5        -10.372225   1.000000
      6        -10.348975   1.000000
      7        -10.345644   1.000000
      8        -10.340751   1.000000
      9        -10.329354   1.000000
     10        -10.322293   1.000000
     11        -10.302251   1.000000
     12        -10.290360   1.000000
     13        -10.247272   1.000000
     14        -10.243065   1.000000
     15        -10.235044   1.000000
     16        -10.216741   1.000000
     17        -10.204919   1.000000
     18        -10.194816   1.000000
     19        -10.179895   1.000000
     20        -10.179311   1.000000
     21        -10.144535   1.000000
     22        -10.132692   1.000000
     23        -10.132303   1.000000
     24        -10.131826   1.000000
     25        -10.127786   1.000000
     26        -10.106054   1.000000
     27        -10.081524   1.000000
     28        -10.076872   1.000000
     29        -10.033515   1.000000
     30        -10.033050   1.000000
     31        -10.006156   1.000000
     32        -10.004649   1.000000
     33         -9.991309   1.000000
     34         -9.984153   1.000000
     35         -9.980903   1.000000
     36         -9.972408   1.000000
     37         -9.957410   1.000000
     38         -9.955231   1.000000
     39         -9.944074   1.000000
     40         -9.885957   1.000000
     41         -6.034092   1.000000
     42         -4.586805   1.000000
     43         -2.124340   1.000000
     44          0.451630   1.000000
     45          0.539013   1.000000
     46          0.999393   1.000000
     47          1.635515   1.000000
     48          2.802210   1.000000
     49          2.831897   1.000000
     50          2.971519   1.000000
     51          3.095609   1.000000
     52          3.525045   1.000000
     53          5.744836   0.000000
     54          5.902474   0.000000
     55          6.023870   0.000000
     56          6.118904   0.000000
     57          6.201368   0.000000
     58          7.874250   0.000000
     59          8.381497   0.000000
     60          8.820760   0.000000
     61          9.420454   0.000000
     62          9.746982   0.000000
     63          9.801164   0.000000
     64         10.810489   0.000000
     65         10.937305   0.000000
     66         11.488544   0.000000
     67         11.519606   0.000000
     68         12.527836   0.000000
     69         12.546087   0.000000
     70         12.765519   0.000000
     71         13.066395   0.000000
     72         13.690774   0.000000
     73         13.888023   0.000000
     74         13.973671   0.000000
     75         14.695054   0.000000
     76         14.792393   0.000000
     77         14.846035   0.000000
     78         15.044333   0.000000
     79         17.225291   0.000000
     80         17.699079   0.000000
     81         17.860418   0.000000
     82         19.624381   0.000000
     83         19.910624   0.000000
     84         20.061142   0.000000
     85         20.945958   0.000000
     86         21.957666   0.000000
     87         21.974727   0.000000
     88         22.764729   0.000000
     89         23.044885   0.000000
     90         23.313639   0.000000
     91         23.375733   0.000000
     92         23.674977   0.000000
     93         23.828093   0.000000
     94         24.525336   0.000000
     95         24.667815   0.000000
     96         24.762099   0.000000
 
  0.1250000E+00  0.1250000E+00  0.0000000E+00  0.7812500E-02
      1        -10.434957   1.000000
      2        -10.398981   1.000000
      3        -10.393747   1.000000
      4        -10.376008   1.000000
      5        -10.374015   1.000000
      6        -10.355309   1.000000
      7        -10.342731   1.000000
      8        -10.335175   1.000000
      9        -10.323070   1.000000
     10        -10.314784   1.000000
     11        -10.294853   1.000000
     12        -10.291128   1.000000
     13        -10.248292   1.000000
     14        -10.247330   1.000000
     15        -10.240811   1.000000
     16        -10.231679   1.000000
     17        -10.216696   1.000000
     18        -10.182612   1.000000
     19        -10.182138   1.000000
     20        -10.172312   1.000000
     21        -10.137327   1.000000
     22        -10.137245   1.000000
     23        -10.133478   1.000000
     24        -10.129285   1.000000
     25        -10.127251   1.000000
     26        -10.101218   1.000000
     27        -10.091768   1.000000
     28        -10.074446   1.000000
     29        -10.042259   1.000000
     30        -10.021912   1.000000
     31        -10.020720   1.000000
     32         -9.994667   1.000000
     33         -9.993475   1.000000
     34         -9.978882   1.000000
     35         -9.970863   1.000000
     36         -9.967930   1.000000
     37         -9.967498   1.000000
     38         -9.962562   1.000000
     39         -9.942590   1.000000
     40         -9.885752   1.000000
     41         -5.920543   1.000000
     42         -4.472704   1.000000
     43         -2.019376   1.000000
     44         -0.571128   1.000000
     45          0.369894   1.000000
     46          1.119035   1.000000
     47          1.274707   1.000000
     48          2.543238   1.000000
     49          3.144070   1.000000
     50          3.189774   1.000000
     51          3.604856   1.000000
     52          4.468582   1.000000
     53          4.807815   0.000585
     54          6.053818   0.000000
     55          6.232048   0.000000
     56          6.238413   0.000000
     57          6.720152   0.000000
     58          7.356067   0.000000
     59          7.479842   0.000000
     60          8.687752   0.000000
     61          8.831555   0.000000
     62          9.684365   0.000000
     63         10.698494   0.000000
     64         11.053923   0.000000
     65         11.061157   0.000000
     66         11.322074   0.000000
     67         11.977778   0.000000
     68         12.155310   0.000000
     69         12.251914   0.000000
     70         12.767776   0.000000
     71         13.361876   0.000000
     72         14.210712   0.000000
     73         14.211114   0.000000
     74         14.253634   0.000000
     75         14.537157   0.000000
     76         15.536671   0.000000
     77         15.892133   0.000000
     78         15.966640   0.000000
     79         16.754045   0.000000
     80         17.182274   0.000000
     81         17.397181   0.000000
     82         19.210742   0.000000
     83         20.006341   0.000000
     84         20.746804   0.000000
     85         20.788845   0.000000
     86         21.161389   0.000000
     87         21.679497   0.000000
     88         22.176924   0.000000
     89         22.715287   0.000000
     90         22.723923   0.000000
     91         23.626516   0.000000
     92         23.749744   0.000000
     93         24.203771   0.000000
     94         24.434687   0.000000
     95         24.868495   0.000000
     96         24.975253   0.000000
 
  0.2500000E+00  0.1250000E+00  0.0000000E+00  0.7812500E-02
      1        -10.432119   1.000000
      2        -10.399783   1.000000
      3        -10.389841   1.000000
      4        -10.373140   1.000000
      5        -10.372953   1.000000
      6        -10.364630   1.000000
      7        -10.348406   1.000000
      8        -10.323092   1.000000
      9        -10.301441   1.000000
     10        -10.300727   1.000000
     11        -10.299170   1.000000
     12        -10.278507   1.000000
     13        -10.266022   1.000000
     14        -10.250272   1.000000
     15        -10.246839   1.000000
     16        -10.243032   1.000000
     17        -10.220627   1.000000
     18        -10.201868   1.000000
     19        -10.166801   1.000000
     20        -10.157002   1.000000
     21        -10.154960   1.000000
     22        -10.140618   1.000000
     23        -10.123869   1.000000
     24        -10.118908   1.000000
     25        -10.116640   1.000000
     26        -10.108406   1.000000
     27        -10.085731   1.000000
     28        -10.061673   1.000000
     29        -10.060248   1.000000
     30        -10.043620   1.000000
     31        -10.016294   1.000000
     32        -10.003302   1.000000
     33        -10.003047   1.000000
     34         -9.981845   1.000000
     35         -9.981740   1.000000
     36         -9.969035   1.000000
     37         -9.963684   1.000000
     38         -9.937861   1.000000
     39         -9.936161   1.000000
     40         -9.885866   1.000000
     41         -5.579001   1.000000
     42         -4.129218   1.000000
     43         -1.960353   1.000000
     44         -1.709252   1.000000
     45         -0.492925   1.000000
     46          0.533983   1.000000
     47          1.476713   1.000000
     48          3.019884   1.000000
     49          3.436522   1.000000
     50          3.495825   1.000000
     51          3.817755   1.000000
     52          4.242937   1.000000
     53          5.249758   0.000000
     54          6.101469   0.000000
     55          6.195802   0.000000
     56          6.608404   0.000000
     57          6.776502   0.000000
     58          6.875882   0.000000
     59          7.453902   0.000000
     60          7.661157   0.000000
     61          9.237456   0.000000
     62          9.455144   0.000000
     63         10.052619   0.000000
     64         10.263220   0.000000
     65         11.033202   0.000000
     66         12.067049   0.000000
     67         12.217643   0.000000
     68         12.888622   0.000000
     69         13.073663   0.000000
     70         13.876685   0.000000
     71         13.991096   0.000000
     72         14.252534   0.000000
     73         14.813949   0.000000
     74         15.360109   0.000000
     75         15.540122   0.000000
     76         16.023315   0.000000
     77         16.213559   0.000000
     78         16.228971   0.000000
     79         16.418445   0.000000
     80         17.785610   0.000000
     81         18.007503   0.000000
     82         18.470093   0.000000
     83         18.826896   0.000000
     84         18.868510   0.000000
     85         20.362688   0.000000
     86         21.091931   0.000000
     87         21.982853   0.000000
     88         22.503932   0.000000
     89         22.599913   0.000000
     90         23.393493   0.000000
     91         23.681913   0.000000
     92         23.910739   0.000000
     93         23.953176   0.000000
     94         24.235461   0.000000
     95         24.275986   0.000000
     96         24.814245   0.000000
 
  0.3750000E+00  0.1250000E+00  0.0000000E+00  0.7812500E-02
      1        -10.425697   1.000000
      2        -10.395861   1.000000
      3        -10.390235   1.000000
      4        -10.374679   1.000000
      5        -10.368432   1.000000
      6        -10.357248   1.000000
      7        -10.348760   1.000000
      8        -10.324966   1.000000
      9        -10.324714   1.000000
     10        -10.321901   1.000000
     11        -10.287568   1.000000
     12        -10.269905   1.000000
     13        -10.258405   1.000000
     14        -10.234386   1.000000
     15        -10.226585   1.000000
     16        -10.225914   1.000000
     17        -10.224904   1.000000
     18        -10.214599   1.000000
     19        -10.168636   1.000000
     20        -10.167281   1.000000
     21        -10.155278   1.000000
     22        -10.133787   1.000000