<?xml version="1.0" encoding="ISO-8859-1"?>
<modeling>
 <generator>
  <i name="program" type="string">vasp </i>
  <i name="version" type="string">6.4.3  </i>
  <i name="subversion" type="string">19Mar24 (build Jun 26 2024 13:02:28) complex                          parallel </i>
  <i name="platform" type="string">LinuxIFC </i>
  <i name="date" type="string">2025 08 08 </i>
  <i name="time" type="string">19:11:13 </i>
 </generator>
 <incar>
  <i type="string" name="SYSTEM">Ga</i>
  <i type="int" name="IBRION">    -1</i>
  <i type="int" name="ISYM">     2</i>
  <i name="ENCUT">    367.49830000</i>
  <i type="int" name="ISMEAR">     0</i>
  <i name="SIGMA">      0.05000000</i>
  <i type="logical" name="LWAVE"> T  </i>
  <i type="logical" name="LCHARG"> T  </i>
 </incar>
 <primitive_cell>
  <structure name="primitive_cell" >
   <crystal>
    <varray name="basis" >
     <v>       2.28344500      -3.87665000       0.00000000 </v>
     <v>       2.28344500       3.87665000       0.00000000 </v>
     <v>       0.00000000       0.00000000       4.59978000 </v>
    </varray>
    <i name="volume">     81.43558201 </i>
    <varray name="rec_basis" >
     <v>       0.21896739      -0.12897734       0.00000000 </v>
     <v>       0.21896739       0.12897734       0.00000000 </v>
     <v>      -0.00000000      -0.00000000       0.21740170 </v>
    </varray>
   </crystal>
   <varray name="positions" >
    <v>       0.84358000       0.15642000       0.08120000 </v>
    <v>       0.15642000       0.84358000       0.91880000 </v>
    <v>       0.65642000       0.34358000       0.58120000 </v>
    <v>       0.34358000       0.65642000       0.41880000 </v>
   </varray>
  </structure>
  <varray name="primitive_index" >
   <v type="int" >        1 </v>
   <v type="int" >        2 </v>
   <v type="int" >        3 </v>
   <v type="int" >        4 </v>
  </varray>
 </primitive_cell>
 <kpoints>
  <generation param="Gamma">
   <v type="int" name="divisions">       8        8        8 </v>
   <v name="usershift">      0.00000000       0.00000000       0.00000000 </v>
   <v name="genvec1">      0.12500000      -0.00000000       0.00000000 </v>
   <v name="genvec2">      0.00000000       0.12500000       0.00000000 </v>
   <v name="genvec3">     -0.00000000       0.00000000       0.12500000 </v>
   <v name="shift">      0.00000000       0.00000000       0.00000000 </v>
  </generation>
  <varray name="kpointlist" >
   <v>       0.00000000       0.00000000       0.00000000 </v>
   <v>       0.12500000      -0.00000000       0.00000000 </v>
   <v>       0.25000000      -0.00000000       0.00000000 </v>
   <v>       0.37500000      -0.00000000       0.00000000 </v>
   <v>       0.50000000      -0.00000000       0.00000000 </v>
   <v>       0.00000000       0.12500000       0.00000000 </v>
   <v>       0.12500000       0.12500000       0.00000000 </v>
   <v>       0.25000000       0.12500000       0.00000000 </v>
   <v>       0.37500000       0.12500000       0.00000000 </v>
   <v>       0.50000000       0.12500000       0.00000000 </v>
   <v>       0.00000000       0.25000000       0.00000000 </v>
   <v>       0.12500000       0.25000000       0.00000000 </v>
   <v>       0.25000000       0.25000000       0.00000000 </v>
   <v>       0.37500000       0.25000000       0.00000000 </v>
   <v>       0.50000000       0.25000000       0.00000000 </v>
   <v>       0.00000000       0.37500000       0.00000000 </v>
   <v>       0.12500000       0.37500000       0.00000000 </v>
   <v>       0.25000000       0.37500000       0.00000000 </v>
   <v>       0.37500000       0.37500000       0.00000000 </v>
   <v>       0.50000000       0.37500000       0.00000000 </v>
   <v>       0.00000000       0.50000000       0.00000000 </v>
   <v>       0.12500000       0.50000000       0.00000000 </v>
   <v>       0.25000000       0.50000000       0.00000000 </v>
   <v>       0.37500000       0.50000000       0.00000000 </v>
   <v>       0.50000000       0.50000000       0.00000000 </v>
   <v>      -0.00000000       0.00000000       0.12500000 </v>
   <v>       0.12500000      -0.00000000       0.12500000 </v>
   <v>       0.25000000      -0.00000000       0.12500000 </v>
   <v>       0.37500000       0.00000000       0.12500000 </v>
   <v>       0.50000000       0.00000000       0.12500000 </v>
   <v>      -0.00000000       0.12500000       0.12500000 </v>
   <v>       0.12500000       0.12500000       0.12500000 </v>
   <v>       0.25000000       0.12500000       0.12500000 </v>
   <v>       0.37500000       0.12500000       0.12500000 </v>
   <v>       0.50000000       0.12500000       0.12500000 </v>
   <v>      -0.00000000       0.25000000       0.12500000 </v>
   <v>       0.12500000       0.25000000       0.12500000 </v>
   <v>       0.25000000       0.25000000       0.12500000 </v>
   <v>       0.37500000       0.25000000       0.12500000 </v>
   <v>       0.50000000       0.25000000       0.12500000 </v>
   <v>      -0.00000000       0.37500000       0.12500000 </v>
   <v>       0.12500000       0.37500000       0.12500000 </v>
   <v>       0.25000000       0.37500000       0.12500000 </v>
   <v>       0.37500000       0.37500000       0.12500000 </v>
   <v>       0.50000000       0.37500000       0.12500000 </v>
   <v>      -0.00000000       0.50000000       0.12500000 </v>
   <v>       0.12500000       0.50000000       0.12500000 </v>
   <v>       0.25000000       0.50000000       0.12500000 </v>
   <v>       0.37500000       0.50000000       0.12500000 </v>
   <v>       0.50000000       0.50000000       0.12500000 </v>
   <v>      -0.00000000       0.00000000       0.25000000 </v>
   <v>       0.12500000       0.00000000       0.25000000 </v>
   <v>       0.25000000      -0.00000000       0.25000000 </v>
   <v>       0.37500000       0.00000000       0.25000000 </v>
   <v>       0.50000000      -0.00000000       0.25000000 </v>
   <v>      -0.00000000       0.12500000       0.25000000 </v>
   <v>       0.12500000       0.12500000       0.25000000 </v>
   <v>       0.25000000       0.12500000       0.25000000 </v>
   <v>       0.37500000       0.12500000       0.25000000 </v>
   <v>       0.50000000       0.12500000       0.25000000 </v>
   <v>      -0.00000000       0.25000000       0.25000000 </v>
   <v>       0.12500000       0.25000000       0.25000000 </v>
   <v>       0.25000000       0.25000000       0.25000000 </v>
   <v>       0.37500000       0.25000000       0.25000000 </v>
   <v>       0.50000000       0.25000000       0.25000000 </v>
   <v>      -0.00000000       0.37500000       0.25000000 </v>
   <v>       0.12500000       0.37500000       0.25000000 </v>
   <v>       0.25000000       0.37500000       0.25000000 </v>
   <v>       0.37500000       0.37500000       0.25000000 </v>
   <v>       0.50000000       0.37500000       0.25000000 </v>
   <v>      -0.00000000       0.50000000       0.25000000 </v>
   <v>       0.12500000       0.50000000       0.25000000 </v>
   <v>       0.25000000       0.50000000       0.25000000 </v>
   <v>       0.37500000       0.50000000       0.25000000 </v>
   <v>       0.50000000       0.50000000       0.25000000 </v>
   <v>      -0.00000000      -0.00000000       0.37500000 </v>
   <v>       0.12500000      -0.00000000       0.37500000 </v>
   <v>       0.25000000      -0.00000000       0.37500000 </v>
   <v>       0.37500000       0.00000000       0.37500000 </v>
   <v>       0.50000000      -0.00000000       0.37500000 </v>
   <v>      -0.00000000       0.12500000       0.37500000 </v>
   <v>       0.12500000       0.12500000       0.37500000 </v>
   <v>       0.25000000       0.12500000       0.37500000 </v>
   <v>       0.37500000       0.12500000       0.37500000 </v>
   <v>       0.50000000       0.12500000       0.37500000 </v>
   <v>      -0.00000000       0.25000000       0.37500000 </v>
   <v>       0.12500000       0.25000000       0.37500000 </v>
   <v>       0.25000000       0.25000000       0.37500000 </v>
   <v>       0.37500000       0.25000000       0.37500000 </v>
   <v>       0.50000000       0.25000000       0.37500000 </v>
   <v>      -0.00000000       0.37500000       0.37500000 </v>
   <v>       0.12500000       0.37500000       0.37500000 </v>
   <v>       0.25000000       0.37500000       0.37500000 </v>
   <v>       0.37500000       0.37500000       0.37500000 </v>
   <v>       0.50000000       0.37500000       0.37500000 </v>
   <v>      -0.00000000       0.50000000       0.37500000 </v>
   <v>       0.12500000       0.50000000       0.37500000 </v>
   <v>       0.25000000       0.50000000       0.37500000 </v>
   <v>       0.37500000       0.50000000       0.37500000 </v>
   <v>       0.50000000       0.50000000       0.37500000 </v>
   <v>      -0.00000000       0.00000000       0.50000000 </v>
   <v>       0.12500000       0.00000000       0.50000000 </v>
   <v>       0.25000000       0.00000000       0.50000000 </v>
   <v>       0.37500000      -0.00000000       0.50000000 </v>
   <v>       0.50000000      -0.00000000       0.50000000 </v>
   <v>      -0.00000000       0.12500000       0.50000000 </v>
   <v>       0.12500000       0.12500000       0.50000000 </v>
   <v>       0.25000000       0.12500000       0.50000000 </v>
   <v>       0.37500000       0.12500000       0.50000000 </v>
   <v>       0.50000000       0.12500000       0.50000000 </v>
   <v>      -0.00000000       0.25000000       0.50000000 </v>
   <v>       0.12500000       0.25000000       0.50000000 </v>
   <v>       0.25000000       0.25000000       0.50000000 </v>
   <v>       0.37500000       0.25000000       0.50000000 </v>
   <v>       0.50000000       0.25000000       0.50000000 </v>
   <v>      -0.00000000       0.37500000       0.50000000 </v>
   <v>       0.12500000       0.37500000       0.50000000 </v>
   <v>       0.25000000       0.37500000       0.50000000 </v>
   <v>       0.37500000       0.37500000       0.50000000 </v>
   <v>       0.50000000       0.37500000       0.50000000 </v>
   <v>      -0.00000000       0.50000000       0.50000000 </v>
   <v>       0.12500000       0.50000000       0.50000000 </v>
   <v>       0.25000000       0.50000000       0.50000000 </v>
   <v>       0.37500000       0.50000000       0.50000000 </v>
   <v>       0.50000000       0.50000000       0.50000000 </v>
  </varray>
  <varray name="weights" >
   <v>       0.00195312 </v>
   <v>       0.00390625 </v>
   <v>       0.00390625 </v>
   <v>       0.00390625 </v>
   <v>       0.00195312 </v>
   <v>       0.00390625 </v>
   <v>       0.00781250 </v>
   <v>       0.00781250 </v>
   <v>       0.00781250 </v>
   <v>       0.00390625 </v>
   <v>       0.00390625 </v>
   <v>       0.00781250 </v>
   <v>       0.00781250 </v>
   <v>       0.00781250 </v>
   <v>       0.00390625 </v>
   <v>       0.00390625 </v>
   <v>       0.00781250 </v>
   <v>       0.00781250 </v>
   <v>       0.00781250 </v>
   <v>       0.00390625 </v>
   <v>       0.00195312 </v>
   <v>       0.00390625 </v>
   <v>       0.00390625 </v>
   <v>       0.00390625 </v>
   <v>       0.00195312 </v>
   <v>       0.00390625 </v>
   <v>       0.00781250 </v>
   <v>       0.00781250 </v>
   <v>       0.00781250 </v>
   <v>       0.00390625 </v>
   <v>       0.00781250 </v>
   <v>       0.01562500 </v>
   <v>       0.01562500 </v>
   <v>       0.01562500 </v>
   <v>       0.00781250 </v>
   <v>       0.00781250 </v>
   <v>       0.01562500 </v>
   <v>       0.01562500 </v>
   <v>       0.01562500 </v>
   <v>       0.00781250 </v>
   <v>       0.00781250 </v>
   <v>       0.01562500 </v>
   <v>       0.01562500 </v>
   <v>       0.01562500 </v>
   <v>       0.00781250 </v>
   <v>       0.00390625 </v>
   <v>       0.00781250 </v>
   <v>       0.00781250 </v>
   <v>       0.00781250 </v>
   <v>       0.00390625 </v>
   <v>       0.00390625 </v>
   <v>       0.00781250 </v>
   <v>       0.00781250 </v>
   <v>       0.00781250 </v>
   <v>       0.00390625 </v>
   <v>       0.00781250 </v>
   <v>       0.01562500 </v>
   <v>       0.01562500 </v>
   <v>       0.01562500 </v>
   <v>       0.00781250 </v>
   <v>       0.00781250 </v>
   <v>       0.01562500 </v>
   <v>       0.01562500 </v>
   <v>       0.01562500 </v>
   <v>       0.00781250 </v>
   <v>       0.00781250 </v>
   <v>       0.01562500 </v>
   <v>       0.01562500 </v>
   <v>       0.01562500 </v>
   <v>       0.00781250 </v>
   <v>       0.00390625 </v>
   <v>       0.00781250 </v>
   <v>       0.00781250 </v>
   <v>       0.00781250 </v>
   <v>       0.00390625 </v>
   <v>       0.00390625 </v>
   <v>       0.00781250 </v>
   <v>       0.00781250 </v>
   <v>       0.00781250 </v>
   <v>       0.00390625 </v>
   <v>       0.00781250 </v>
   <v>       0.01562500 </v>
   <v>       0.01562500 </v>
   <v>       0.01562500 </v>
   <v>       0.00781250 </v>
   <v>       0.00781250 </v>
   <v>       0.01562500 </v>
   <v>       0.01562500 </v>
   <v>       0.01562500 </v>
   <v>       0.00781250 </v>
   <v>       0.00781250 </v>
   <v>       0.01562500 </v>
   <v>       0.01562500 </v>
   <v>       0.01562500 </v>
   <v>       0.00781250 </v>
   <v>       0.00390625 </v>
   <v>       0.00781250 </v>
   <v>       0.00781250 </v>
   <v>       0.00781250 </v>
   <v>       0.00390625 </v>
   <v>       0.00195312 </v>
   <v>       0.00390625 </v>
   <v>       0.00390625 </v>
   <v>       0.00390625 </v>
   <v>       0.00195312 </v>
   <v>       0.00390625 </v>
   <v>       0.00781250 </v>
   <v>       0.00781250 </v>
   <v>       0.00781250 </v>
   <v>       0.00390625 </v>
   <v>       0.00390625 </v>
   <v>       0.00781250 </v>
   <v>       0.00781250 </v>
   <v>       0.00781250 </v>
   <v>       0.00390625 </v>
   <v>       0.00390625 </v>
   <v>       0.00781250 </v>
   <v>       0.00781250 </v>
   <v>       0.00781250 </v>
   <v>       0.00390625 </v>
   <v>       0.00195312 </v>
   <v>       0.00390625 </v>
   <v>       0.00390625 </v>
   <v>       0.00390625 </v>
   <v>       0.00195312 </v>
  </varray>
 </kpoints>
 <parameters>
  <separator name="general" >
   <i type="string" name="SYSTEM">Ga</i>
   <i type="logical" name="LCOMPAT"> F  </i>
  </separator>
  <separator name="electronic" >
   <i type="string" name="PREC">normal</i>
   <i name="ENMAX">    367.49830000</i>
   <i name="ENAUG">    490.69000000</i>
   <i name="EDIFF">      0.00010000</i>
   <i type="int" name="IALGO">    38</i>
   <i type="int" name="IWAVPR">    10</i>
   <i type="int" name="NBANDS">    96</i>
   <i type="int" name="NBANDSLOW">    -1</i>
   <i type="int" name="NBANDSHIGH">    -1</i>
   <i name="NELECT">    104.00000000</i>
   <i type="int" name="TURBO">     0</i>
   <i type="int" name="IRESTART">     0</i>
   <i type="int" name="NREBOOT">     0</i>
   <i type="int" name="NMIN">     0</i>
   <i name="EREF">      0.00000000</i>
   <separator name="electronic smearing" >
    <i type="int" name="ISMEAR">     0</i>
    <i name="SIGMA">      0.05000000</i>
    <i name="KSPACING">      0.50000000</i>
    <i type="logical" name="KGAMMA"> T  </i>
    <i type="logical" name="KBLOWUP"> T  </i>
   </separator>
   <separator name="electronic projectors" >
    <i type="logical" name="LREAL"> F  </i>
    <v name="ROPT">      0.00000000</v>
    <i type="int" name="LMAXPAW">  -100</i>
    <i type="int" name="LMAXMIX">     2</i>
    <i type="logical" name="NLSPLINE"> F  </i>
   </separator>
   <separator name="electronic startup" >
    <i type="int" name="ISTART">     1</i>
    <i type="int" name="ICHARG">     0</i>
    <i type="int" name="INIWAV">     1</i>
   </separator>
   <separator name="electronic spin" >
    <i type="int" name="ISPIN">     1</i>
    <i type="logical" name="LNONCOLLINEAR"> F  </i>
    <v name="MAGMOM">      1.00000000      1.00000000      1.00000000      1.00000000      1.00000000      1.00000000      1.00000000      1.00000000</v>
    <i name="NUPDOWN">     -1.00000000</i>
    <i type="logical" name="LSORBIT"> F  </i>
    <v name="SAXIS">      0.00000000      0.00000000      1.00000000</v>
    <i type="logical" name="LSPIRAL"> F  </i>
    <v name="QSPIRAL">      0.00000000      0.00000000      0.00000000</v>
    <i type="logical" name="LZEROZ"> F  </i>
   </separator>
   <separator name="electronic exchange-correlation" >
    <i type="logical" name="LASPH"> F  </i>
   </separator>
   <separator name="electronic convergence" >
    <i type="int" name="NELM">    60</i>
    <i type="int" name="NELMDL">     0</i>
    <i type="int" name="NELMIN">     2</i>
    <i name="ENINI">    367.49830000</i>
    <separator name="electronic convergence detail" >
     <i type="logical" name="LDIAG"> T  </i>
     <i type="logical" name="LSUBROT"> F  </i>
     <i name="WEIMIN">      0.00000000</i>
     <i name="EBREAK">      0.00000026</i>
     <i name="DEPER">      0.30000000</i>
     <i type="int" name="NRMM">     4</i>
     <i name="TIME">      0.40000000</i>
    </separator>
   </separator>
   <separator name="electronic mixer" >
    <i name="AMIX">      0.40000000</i>
    <i name="BMIX">      1.00000000</i>
    <i name="AMIN">      0.10000000</i>
    <i name="AMIX_MAG">      1.60000000</i>
    <i name="BMIX_MAG">      1.00000000</i>
    <separator name="electronic mixer details" >
     <i type="int" name="IMIX">     4</i>
     <i type="logical" name="MIXFIRST"> F  </i>
     <i type="int" name="MAXMIX">   -45</i>
     <i name="WC">    100.00000000</i>
     <i type="int" name="INIMIX">     1</i>
     <i type="int" name="MIXPRE">     1</i>
     <i type="int" name="MREMOVE">     5</i>
    </separator>
   </separator>
   <separator name="electronic dipolcorrection" >
    <i type="logical" name="LDIPOL"> F  </i>
    <i type="logical" name="LMONO"> F  </i>
    <i type="int" name="IDIPOL">     0</i>
    <i name="EPSILON">      1.00000000</i>
    <v name="DIPOL">   -100.00000000   -100.00000000   -100.00000000</v>
    <i name="EFIELD">      0.00000000</i>
    <i type="logical" name="LVACPOTAV"> F  </i>
   </separator>
  </separator>
  <separator name="grids" >
   <i type="int" name="NGX">    24</i>
   <i type="int" name="NGY">    36</i>
   <i type="int" name="NGZ">    24</i>
   <i type="int" name="NGXF">    48</i>
   <i type="int" name="NGYF">    72</i>
   <i type="int" name="NGZF">    48</i>
   <i type="logical" name="ADDGRID"> F  </i>
  </separator>
  <separator name="ionic" >
   <i type="int" name="NSW">     0</i>
   <i type="int" name="IBRION">    -1</i>
   <i type="int" name="MDALGO">     0</i>
   <i type="int" name="ISIF">     2</i>
   <i name="PSTRESS">      0.00000000</i>
   <i name="EDIFFG">      0.00100000</i>
   <i type="int" name="NFREE">     0</i>
   <i name="POTIM">      0.50000000</i>
   <i name="SMASS">     -3.00000000</i>
   <i name="SCALEE">      1.00000000</i>
  </separator>
  <separator name="ionic md" >
   <i name="TEBEG">      0.00010000</i>
   <i name="TEEND">      0.00010000</i>
   <i type="int" name="NBLOCK">     1</i>
   <i type="int" name="KBLOCK">     1</i>
   <i type="int" name="NPACO">   256</i>
   <i name="APACO">     10.00000000</i>
  </separator>
  <separator name="symmetry" >
   <i type="int" name="ISYM">     2</i>
   <i name="SYMPREC">      0.00001000</i>
  </separator>
  <separator name="dos" >
   <i type="int" name="LORBIT">     0</i>
   <v name="RWIGS">     -1.00000000</v>
   <i type="int" name="NEDOS">   301</i>
   <i name="EMIN">     10.00000000</i>
   <i name="EMAX">    -10.00000000</i>
   <i name="EFERMI">      0.00000000</i>
  </separator>
  <separator name="writing" >
   <i type="int" name="NWRITE">     2</i>
   <i type="logical" name="LWAVE"> T  </i>
   <i type="logical" name="LDOWNSAMPLE"> F  </i>
   <i type="logical" name="LCHARG"> T  </i>
   <i type="logical" name="LPARD"> F  </i>
   <i type="logical" name="LVTOT"> F  </i>
   <i type="logical" name="LVHAR"> F  </i>
   <i type="logical" name="LELF"> F  </i>
   <i type="logical" name="LOPTICS"> F  </i>
   <v name="STM">      0.00000000      0.00000000      0.00000000      0.00000000      0.00000000      0.00000000      0.00000000</v>
  </separator>
  <separator name="performance" >
   <i type="int" name="NPAR">    48</i>
   <i type="int" name="NSIM">     4</i>
   <i type="int" name="NBLK">    -1</i>
   <i type="logical" name="LPLANE"> T  </i>
   <i type="logical" name="LSCALAPACK"> T  </i>
   <i type="logical" name="LSCAAWARE"> T  </i>
   <i type="logical" name="LSCALU"> F  </i>
   <i type="logical" name="LASYNC"> F  </i>
   <i type="logical" name="LORBITALREAL"> F  </i>
  </separator>
  <separator name="miscellaneous" >
   <i type="int" name="IDIOT">     3</i>
   <i type="int" name="PHON_NSTRUCT">    -1</i>
   <i type="logical" name="LMUSIC"> F  </i>
   <v name="POMASS">     69.72300000</v>
   <v name="DARWINR">      0.00000000</v>
   <v name="DARWINV">      1.00000000</v>
   <i type="logical" name="LCORR"> T  </i>
  </separator>
  <i type="logical" name="GGA_COMPAT"> T  </i>
  <i type="logical" name="LBERRY"> F  </i>
  <i type="int" name="ICORELEVEL">     0</i>
  <i type="logical" name="LDAU"> F  </i>
  <i type="int" name="I_CONSTRAINED_M">     0</i>
  <separator name="electronic exchange-correlation" >
   <i type="string" name="GGA    ">PE</i>
   <i type="string" name="XC_C">1</i>
   <i type="int" name="VOSKOWN">     0</i>
   <i type="logical" name="LHFCALC"> F  </i>
   <i type="string" name="PRECFOCK"></i>
   <i type="logical" name="LSYMGRAD"> F  </i>
   <i type="logical" name="LHFONE"> F  </i>
   <i type="logical" name="LRHFCALC"> F  </i>
   <i type="logical" name="LTHOMAS"> F  </i>
   <i type="logical" name="LMODELHF"> F  </i>
   <i type="logical" name="LFOCKACE"> F  </i>
   <i name="ENCUT4O">     -1.00000000</i>
   <i type="int" name="EXXOEP">     0</i>
   <i type="int" name="FOURORBIT">     0</i>
   <i name="AEXX">      0.00000000</i>
   <i name="HFALPHA">      0.00000000</i>
   <i name="MCALPHA">      0.00000000</i>
   <i name="ALDAX">      1.00000000</i>
   <i name="AGGAX">      1.00000000</i>
   <i name="AMGGAX">      1.00000000</i>
   <i name="ALDAC">      1.00000000</i>
   <i name="AGGAC">      1.00000000</i>
   <i name="AMGGAC">      1.00000000</i>
   <i type="int" name="NKREDX">     1</i>
   <i type="int" name="NKREDY">     1</i>
   <i type="int" name="NKREDZ">     1</i>
   <i type="logical" name="SHIFTRED"> F  </i>
   <i type="logical" name="ODDONLY"> F  </i>
   <i type="logical" name="EVENONLY"> F  </i>
   <i type="int" name="LMAXFOCK">     0</i>
   <i type="int" name="NMAXFOCKAE">     0</i>
   <i type="logical" name="LFOCKAEDFT"> F  </i>
   <i name="HFSCREEN">      0.00000000</i>
   <i name="HFSCREENC">      0.00000000</i>
   <i type="int" name="NBANDSGWLOW">     0</i>
  </separator>
  <separator name="vdW DFT" >
   <i type="logical" name="LUSE_VDW"> F  </i>
   <i type="int" name="IVDW_NL">    -1</i>
   <i type="logical" name="LSPIN_VDW"> F  </i>
   <i name="ZAB_VDW">     -0.84910000</i>
   <i name="GAMMA_VDW">      1.39626340</i>
   <i name="ALPHA_VDW">      0.00000000</i>
   <i name="PARAM1">      0.12340000</i>
   <i name="PARAM2">      1.00000000</i>
   <i name="BPARAM">      6.30000000</i>
   <i name="CPARAM">      0.00930000</i>
  </separator>
  <separator name="model GW" >
   <i type="int" name="MODEL_GW">     0</i>
   <i name="MODEL_EPS0">     12.21533730</i>
   <i name="MODEL_ALPHA">      1.00000000</i>
  </separator>
  <separator name="linear response parameters" >
   <i type="logical" name="LEPSILON"> F  </i>
   <i type="logical" name="LRPA"> F  </i>
   <i type="logical" name="LNABLA"> F  </i>
   <i type="logical" name="LVEL"> F  </i>
   <i name="CSHIFT">      0.10000000</i>
   <i name="OMEGAMAX">     -1.00000000</i>
   <i name="DEG_THRESHOLD">      0.00200000</i>
   <i name="RTIME">     -0.10000000</i>
   <i name="WPLASMAI">      0.00000000</i>
   <v name="DFIELD">      0.00000000      0.00000000      0.00000000</v>
   <v name="WPLASMA">      0.00000000      0.00000000      0.00000000      0.00000000      0.00000000      0.00000000      0.00000000      0.00000000      0.00000000</v>
  </separator>
  <separator name="orbital magnetization" >
   <i type="logical" name="NUCIND"> F  </i>
   <v name="MAGPOS">      0.00000000      0.00000000      0.00000000</v>
   <i type="logical" name="LNICSALL"> T  </i>
   <i type="logical" name="ORBITALMAG"> F  </i>
   <i type="logical" name="LMAGBLOCH"> F  </i>
   <i type="logical" name="LCHIMAG"> F  </i>
   <i type="logical" name="LGAUGE"> T  </i>
   <i type="int" name="MAGATOM">     0</i>
   <v name="MAGDIPOL">      0.00000000      0.00000000      0.00000000</v>
   <v name="AVECCONST">      0.00000000      0.00000000      0.00000000</v>
  </separator>
  <separator name="response functions" >
   <i type="logical" name="LALL_IN_ONE"> F  </i>
   <i type="int" name="IALL_IN_ONE">    -1</i>
   <i type="int" name="NBANDS_WAVE">    -1</i>
   <i type="logical" name="LFINITE_TEMPERATURE"> F  </i>
   <i type="logical" name="LADDER"> F  </i>
   <i type="logical" name="LRPAFORCE"> F  </i>
   <i type="logical" name="LFXC"> F  </i>
   <i type="logical" name="LHARTREE"> T  </i>
   <i type="int" name="IBSE">     0</i>
   <v type="int" name="KPOINT">    -1     0     0     0</v>
   <i type="logical" name="LTCTC"> F  </i>
   <i type="logical" name="LTCTE"> F  </i>
   <i type="logical" name="LTETE"> F  </i>
   <i type="logical" name="LTRIPLET"> F  </i>
   <i type="logical" name="LFXCEPS"> F  </i>
   <i type="logical" name="LFXHEG"> F  </i>
   <i type="int" name="NATURALO">     2</i>
   <i type="logical" name="LHOLEGF"> F  </i>
   <i type="logical" name="L2ORDER"> F  </i>
   <i type="logical" name="LDMP1"> F  </i>
   <i type="logical" name="LMP2LT"> F  </i>
   <i type="logical" name="LSMP2LT"> F  </i>
   <i type="logical" name="LGWLF"> F  </i>
   <i name="ENCUTGW">     -1.60000002</i>
   <i name="ENCUTGWSOFT">     -1.60000002</i>
   <i name="ENCUTLF">     -1.00000000</i>
   <i type="logical" name="ESF_SPLINES"> F  </i>
   <i name="ESF_CONV">      0.01000000</i>
   <i type="int" name="ESF_NINTER">    15</i>
   <i type="int" name="LMAXMP2">    -1</i>
   <i name="SCISSOR">      0.00000000</i>
   <i type="int" name="NOMEGA">     0</i>
   <i type="int" name="NOMEGAR">     0</i>
   <i type="int" name="NBANDSGW">    -1</i>
   <i type="int" name="NBANDSO">    -1</i>
   <i type="int" name="NBANDSV">    -1</i>
   <i type="int" name="NELMGW">     1</i>
   <i type="int" name="NELMHF">     1</i>
   <i type="int" name="DIM">     3</i>
   <i type="int" name="IESPILON">     4</i>
   <i type="int" name="ANTIRES">     0</i>
   <i name="OMEGAMAX">    -30.00000000</i>
   <i name="OMEGAMIN">    -30.00000000</i>
   <i name="OMEGATL">   -200.00000000</i>
   <i type="int" name="OMEGAGRID">     0</i>
   <i name="CSHIFT">     -0.10000000</i>
   <i type="logical" name="LSELFENERGY"> F  </i>
   <i type="logical" name="LSPECTRAL"> F  </i>
   <i type="logical" name="LSPECTRALGW"> F  </i>
   <i type="logical" name="LSINGLES"> F  </i>
   <i type="logical" name="LFERMIGW"> F  </i>
   <i type="logical" name="ODDONLYGW"> F  </i>
   <i type="logical" name="EVENONLYGW"> F  </i>
   <i type="int" name="NKREDLFX">     1</i>
   <i type="int" name="NKREDLFY">     1</i>
   <i type="int" name="NKREDLFZ">     1</i>
   <i type="int" name="MAXMEM">  2800</i>
   <i type="int" name="TELESCOPE">     0</i>
   <i type="int" name="NTAUPAR">    -1</i>
   <i type="int" name="NOMEGAPAR">    -1</i>
   <i name="DAMP_NEWTON">      0.80000001</i>
   <i name="LAMBDA">      1.00000000</i>
  </separator>
  <separator name="External order field" >
   <i name="OFIELD_KAPPA">      0.00000000</i>
   <v name="OFIELD_K">      0.00000000      0.00000000      0.00000000</v>
   <i name="OFIELD_Q6_NEAR">      0.00000000</i>
   <i name="OFIELD_Q6_FAR">      0.00000000</i>
   <i name="OFIELD_A">      0.00000000</i>
  </separator>
  <separator name="optional k-points parameters" >
   <i type="int" name="KPOINTS_OPT_MODE">     1</i>
   <i type="logical" name="LKPOINTS_OPT"> T  </i>
  </separator>
 </parameters>
 <atominfo>
  <atoms>       8 </atoms>
  <types>       1 </types>
  <array name="atoms" >
   <dimension dim="1">ion</dimension>
   <field type="string">element</field>
   <field type="int">atomtype</field>
   <set>
    <rc><c>Ga</c><c>   1</c></rc>
    <rc><c>Ga</c><c>   1</c></rc>
    <rc><c>Ga</c><c>   1</c></rc>
    <rc><c>Ga</c><c>   1</c></rc>
    <rc><c>Ga</c><c>   1</c></rc>
    <rc><c>Ga</c><c>   1</c></rc>
    <rc><c>Ga</c><c>   1</c></rc>
    <rc><c>Ga</c><c>   1</c></rc>
   </set>
  </array>
  <array name="atomtypes" >
   <dimension dim="1">type</dimension>
   <field type="int">atomspertype</field>
   <field type="string">element</field>
   <field>mass</field>
   <field>valence</field>
   <field type="string">pseudopotential</field>
   <set>
    <rc><c>   8</c><c>Ga</c><c>     69.72300000</c><c>     13.00000000</c><c>PAW_PBE Ga_d 06Jul2010                  </c></rc>
   </set>
  </array>
 </atominfo>
 <structure name="initialpos" >
  <crystal>
   <varray name="basis" >
    <v>       4.56689000       0.00000000       0.00000000 </v>
    <v>       0.00000000       7.75330000       0.00000000 </v>
    <v>       0.00000000       0.00000000       4.59978000 </v>
   </varray>
   <i name="volume">    162.87116403 </i>
   <varray name="rec_basis" >
    <v>       0.21896739      -0.00000000       0.00000000 </v>
    <v>       0.00000000       0.12897734       0.00000000 </v>
    <v>      -0.00000000      -0.00000000       0.21740170 </v>
   </varray>
  </crystal>
  <varray name="positions" >
   <v>       0.00000000       0.15642000       0.08120000 </v>
   <v>       0.00000000       0.84358000       0.91880000 </v>
   <v>       0.00000000       0.34358000       0.58120000 </v>
   <v>       0.00000000       0.65642000       0.41880000 </v>
   <v>       0.50000000       0.65642000       0.08120000 </v>
   <v>       0.50000000       0.34358000       0.91880000 </v>
   <v>       0.50000000       0.84358000       0.58120000 </v>
   <v>       0.50000000       0.15642000       0.41880000 </v>
  </varray>
 </structure>
 <calculation>
  <scstep>
   <time name="dav">    4.87    4.87</time>
   <time name="total">    4.92    4.92</time>
   <energy>
    <i name="alphaZ">    530.62805093 </i>
    <i name="ewald">  -9926.88634261 </i>
    <i name="hartreedc">  -4689.22511151 </i>
    <i name="XCdc">    349.43780990 </i>
    <i name="pawpsdc">  13742.81334992 </i>
    <i name="pawaedc"> -16412.99427980 </i>
    <i name="eentropy">     -0.00254258 </i>
    <i name="bandstr">   -807.49763827 </i>
    <i name="atom">  17190.49953390 </i>
    <i name="e_fr_energy">    -23.22717013 </i>
    <i name="e_wo_entrp">    -23.22462756 </i>
    <i name="e_0_energy">    -23.22589884 </i>
   </energy>
  </scstep>
  <scstep>
   <time name="dav">    3.97    3.97</time>
   <time name="total">    3.98    3.98</time>
   <energy>
    <i name="alphaZ">    530.62805093 </i>
    <i name="ewald">  -9926.88634261 </i>
    <i name="hartreedc">  -4689.23095658 </i>
    <i name="XCdc">    349.43803903 </i>
    <i name="pawpsdc">  13742.81861345 </i>
    <i name="pawaedc"> -16413.00567127 </i>
    <i name="eentropy">     -0.00254257 </i>
    <i name="bandstr">   -807.48589436 </i>
    <i name="atom">  17190.49953390 </i>
    <i name="e_fr_energy">    -23.22717008 </i>
    <i name="e_wo_entrp">    -23.22462751 </i>
    <i name="e_0_energy">    -23.22589880 </i>
   </energy>
  </scstep>
  <structure>
   <crystal>
    <varray name="basis" >
     <v>       4.56689000       0.00000000       0.00000000 </v>
     <v>       0.00000000       7.75330000       0.00000000 </v>
     <v>       0.00000000       0.00000000       4.59978000 </v>
    </varray>
    <i name="volume">    162.87116403 </i>
    <varray name="rec_basis" >
     <v>       0.21896739      -0.00000000       0.00000000 </v>
     <v>       0.00000000       0.12897734       0.00000000 </v>
     <v>      -0.00000000      -0.00000000       0.21740170 </v>
    </varray>
   </crystal>
   <varray name="positions" >
    <v>       0.00000000       0.15642000       0.08120000 </v>
    <v>       0.00000000       0.84358000       0.91880000 </v>
    <v>       0.00000000       0.34358000       0.58120000 </v>
    <v>       0.00000000       0.65642000       0.41880000 </v>
    <v>       0.50000000       0.65642000       0.08120000 </v>
    <v>       0.50000000       0.34358000       0.91880000 </v>
    <v>       0.50000000       0.84358000       0.58120000 </v>
    <v>       0.50000000       0.15642000       0.41880000 </v>
   </varray>
  </structure>
  <varray name="forces" >
   <v>      -0.00000000      -0.04157482      -0.00024149 </v>
   <v>       0.00000000       0.04157482       0.00024149 </v>
   <v>       0.00000000       0.04157482      -0.00024149 </v>
   <v>      -0.00000000      -0.04157482       0.00024149 </v>
   <v>      -0.00000000      -0.04157482      -0.00024149 </v>
   <v>       0.00000000       0.04157482       0.00024149 </v>
   <v>       0.00000000       0.04157482      -0.00024149 </v>
   <v>      -0.00000000      -0.04157482       0.00024149 </v>
  </varray>
  <varray name="stress" >
   <v>      -3.68412534       0.00000000       0.00000000 </v>
   <v>       0.00000000      -4.14390660       0.00000000 </v>
   <v>       0.00000000       0.00000000      -2.66937462 </v>
  </varray>
  <energy>
   <i name="e_fr_energy">    -23.22717008 </i>
   <i name="e_wo_entrp">    -23.22462751 </i>
   <i name="e_0_energy">    -23.22589880 </i>
  </energy>
  <dos comment="kpoints_opt">
   <i name="efermi">      4.71308162 </i>
   <total>
    <array>
     <dimension dim="1">gridpoints</dimension>
     <dimension dim="2">spin</dimension>
     <field>energy</field>
     <field>total</field>
     <field>integrated</field>
     <set>
      <set comment="spin 1">
       <r>   -12.2530     0.0000     0.0000 </r>
       <r>   -12.1199     0.0000     0.0000 </r>
       <r>   -11.9869     0.0000     0.0000 </r>
       <r>   -11.8538     0.0000     0.0000 </r>
       <r>   -11.7208     0.0000     0.0000 </r>
       <r>   -11.5877     0.0000     0.0000 </r>
       <r>   -11.4547     0.0000     0.0000 </r>
       <r>   -11.3216     0.0000     0.0000 </r>
       <r>   -11.1886     0.0000     0.0000 </r>
       <r>   -11.0555     0.0000     0.0000 </r>
       <r>   -10.9225     0.0000     0.0000 </r>
       <r>   -10.7894     0.0000     0.0000 </r>
       <r>   -10.6564     0.0000     0.0000 </r>
       <r>   -10.5233     0.0355     0.0047 </r>
       <r>   -10.3903    39.6259     5.2768 </r>
       <r>   -10.2573   165.3785    27.2799 </r>
       <r>   -10.1242   137.1601    45.5286 </r>
       <r>    -9.9912   161.4602    67.0103 </r>
       <r>    -9.8581    95.4719    79.7125 </r>
       <r>    -9.7251     2.1607    80.0000 </r>
       <r>    -9.5920     0.0000    80.0000 </r>
       <r>    -9.4590     0.0000    80.0000 </r>
       <r>    -9.3259     0.0000    80.0000 </r>
       <r>    -9.1929     0.0000    80.0000 </r>
       <r>    -9.0598     0.0000    80.0000 </r>
       <r>    -8.9268     0.0000    80.0000 </r>
       <r>    -8.7937     0.0000    80.0000 </r>
       <r>    -8.6607     0.0000    80.0000 </r>
       <r>    -8.5276     0.0000    80.0000 </r>
       <r>    -8.3946     0.0000    80.0000 </r>
       <r>    -8.2616     0.0000    80.0000 </r>
       <r>    -8.1285     0.0000    80.0000 </r>
       <r>    -7.9955     0.0000    80.0000 </r>
       <r>    -7.8624     0.0000    80.0000 </r>
       <r>    -7.7294     0.0000    80.0000 </r>
       <r>    -7.5963     0.0000    80.0000 </r>
       <r>    -7.4633     0.0000    80.0000 </r>
       <r>    -7.3302     0.0000    80.0000 </r>
       <r>    -7.1972     0.0000    80.0000 </r>
       <r>    -7.0641     0.0000    80.0000 </r>
       <r>    -6.9311     0.0000    80.0000 </r>
       <r>    -6.7980     0.0000    80.0000 </r>
       <r>    -6.6650     0.0000    80.0000 </r>
       <r>    -6.5319     0.0000    80.0000 </r>
       <r>    -6.3989     0.0000    80.0000 </r>
       <r>    -6.2659     0.0000    80.0000 </r>
       <r>    -6.1328     0.0315    80.0042 </r>
       <r>    -5.9998     1.7960    80.2431 </r>
       <r>    -5.8667     1.3281    80.4198 </r>
       <r>    -5.7337     0.8846    80.5375 </r>
       <r>    -5.6006     0.7186    80.6331 </r>
       <r>    -5.4676     0.6222    80.7159 </r>
       <r>    -5.3345     0.5571    80.7900 </r>
       <r>    -5.2015     0.5096    80.8578 </r>
       <r>    -5.0684     0.7187    80.9535 </r>
       <r>    -4.9354     2.6987    81.3125 </r>
       <r>    -4.8023     1.7290    81.5425 </r>
       <r>    -4.6693     1.5438    81.7479 </r>
       <r>    -4.5362     1.6065    81.9617 </r>
       <r>    -4.4032     4.2316    82.5247 </r>
       <r>    -4.2702     2.0059    82.7916 </r>
       <r>    -4.1371     2.4898    83.1228 </r>
       <r>    -4.0041     2.1235    83.4053 </r>
       <r>    -3.8710     1.8846    83.6561 </r>
       <r>    -3.7380     1.7423    83.8879 </r>
       <r>    -3.6049     1.9686    84.1498 </r>
       <r>    -3.4719     1.5078    84.3504 </r>
       <r>    -3.3388     1.4198    84.5393 </r>
       <r>    -3.2058     1.3495    84.7189 </r>
       <r>    -3.0727     1.2994    84.8917 </r>
       <r>    -2.9397     1.2562    85.0589 </r>
       <r>    -2.8066     1.2120    85.2201 </r>
       <r>    -2.6736     1.1722    85.3761 </r>
       <r>    -2.5405     1.0391    85.5143 </r>
       <r>    -2.4075     0.7868    85.6190 </r>
       <r>    -2.2745     1.7260    85.8487 </r>
       <r>    -2.1414     1.6498    86.0682 </r>
       <r>    -2.0084     1.3166    86.2433 </r>
       <r>    -1.8753     1.3421    86.4219 </r>
       <r>    -1.7423     1.2411    86.5870 </r>
       <r>    -1.6092     1.1263    86.7369 </r>
       <r>    -1.4762     1.0638    86.8784 </r>
       <r>    -1.3431     1.0168    87.0137 </r>
       <r>    -1.2101     0.9620    87.1417 </r>
       <r>    -1.0770     0.9339    87.2659 </r>
       <r>    -0.9440     0.8999    87.3857 </r>
       <r>    -0.8109     0.8823    87.5031 </r>
       <r>    -0.6779     0.8611    87.6176 </r>
       <r>    -0.5448     0.8605    87.7321 </r>
       <r>    -0.4118     1.0486    87.8716 </r>
       <r>    -0.2788     1.4979    88.0709 </r>
       <r>    -0.1457     1.5024    88.2708 </r>
       <r>    -0.0127     1.4974    88.4700 </r>
       <r>     0.1204     1.5198    88.6722 </r>
       <r>     0.2534     1.6036    88.8856 </r>
       <r>     0.3865     2.1084    89.1661 </r>
       <r>     0.5195     3.9369    89.6899 </r>
       <r>     0.6526     1.2230    89.8526 </r>
       <r>     0.7856     0.9335    89.9768 </r>
       <r>     0.9187     1.5332    90.1808 </r>
       <r>     1.0517     4.4470    90.7724 </r>
       <r>     1.1848     5.7067    91.5317 </r>
       <r>     1.3178     7.1305    92.4804 </r>
       <r>     1.4509     7.8449    93.5241 </r>
       <r>     1.5839     1.6429    93.7427 </r>
       <r>     1.7169     2.0359    94.0136 </r>
       <r>     1.8500     1.7926    94.2521 </r>
       <r>     1.9830     1.8007    94.4917 </r>
       <r>     2.1161     1.9382    94.7495 </r>
       <r>     2.2491     2.3906    95.0676 </r>
       <r>     2.3822     2.0693    95.3429 </r>
       <r>     2.5152     1.9567    95.6032 </r>
       <r>     2.6483     2.2887    95.9077 </r>
       <r>     2.7813     1.9076    96.1615 </r>
       <r>     2.9144     4.9966    96.8263 </r>
       <r>     3.0474     2.7469    97.1918 </r>
       <r>     3.1805     6.3148    98.0319 </r>
       <r>     3.3135     7.8935    99.0821 </r>
       <r>     3.4466    14.8856   101.0626 </r>
       <r>     3.5796     5.8579   101.8420 </r>
       <r>     3.7126     2.5123   102.1762 </r>
       <r>     3.8457     2.1772   102.4659 </r>
       <r>     3.9787     2.1414   102.7508 </r>
       <r>     4.1118     2.2736   103.0533 </r>
       <r>     4.2448     1.4537   103.2467 </r>
       <r>     4.3779     1.5955   103.4590 </r>
       <r>     4.5109     1.6944   103.6844 </r>
       <r>     4.6440     1.6737   103.9071 </r>
       <r>     4.7770     1.2873   104.0784 </r>
       <r>     4.9101     0.8483   104.1913 </r>
       <r>     5.0431     0.7170   104.2867 </r>
       <r>     5.1762     0.7218   104.3827 </r>
       <r>     5.3092     2.5273   104.7189 </r>
       <r>     5.4423     9.5851   105.9942 </r>
       <r>     5.5753     6.8320   106.9032 </r>
       <r>     5.7083     5.6945   107.6608 </r>
       <r>     5.8414     6.6287   108.5427 </r>
       <r>     5.9744     6.4716   109.4038 </r>
       <r>     6.1075     5.1979   110.0953 </r>
       <r>     6.2405     3.1885   110.5195 </r>
       <r>     6.3736     2.7749   110.8887 </r>
       <r>     6.5066     2.9128   111.2763 </r>
       <r>     6.6397     2.5375   111.6139 </r>
       <r>     6.7727     3.2871   112.0512 </r>
       <r>     6.9058     5.3948   112.7690 </r>
       <r>     7.0388     4.1425   113.3201 </r>
       <r>     7.1719     2.2200   113.6155 </r>
       <r>     7.3049     2.2872   113.9198 </r>
       <r>     7.4380     2.5502   114.2591 </r>
       <r>     7.5710     2.5179   114.5941 </r>
       <r>     7.7040     2.7277   114.9570 </r>
       <r>     7.8371     3.2992   115.3959 </r>
       <r>     7.9701     3.3937   115.8475 </r>
       <r>     8.1032     2.6575   116.2010 </r>
       <r>     8.2362     2.8107   116.5750 </r>
       <r>     8.3693     3.6463   117.0601 </r>
       <r>     8.5023     3.3636   117.5076 </r>
       <r>     8.6354     4.6765   118.1298 </r>
       <r>     8.7684     8.1991   119.2207 </r>
       <r>     8.9015     5.0891   119.8978 </r>
       <r>     9.0345     4.4668   120.4921 </r>
       <r>     9.1676     3.9113   121.0124 </r>
       <r>     9.3006     2.3632   121.3269 </r>
       <r>     9.4337     2.8568   121.7070 </r>
       <r>     9.5667     3.5742   122.1825 </r>
       <r>     9.6997     7.2989   123.1536 </r>
       <r>     9.8328     5.7823   123.9229 </r>
       <r>     9.9658     5.2724   124.6244 </r>
       <r>    10.0989     4.3961   125.2093 </r>
       <r>    10.2319     4.4376   125.7997 </r>
       <r>    10.3650     4.9833   126.4627 </r>
       <r>    10.4980     2.9343   126.8531 </r>
       <r>    10.6311     2.8393   127.2308 </r>
       <r>    10.7641     3.1845   127.6545 </r>
       <r>    10.8972     3.0575   128.0613 </r>
       <r>    11.0302     4.1544   128.6140 </r>
       <r>    11.1633     4.9501   129.2726 </r>
       <r>    11.2963     4.5948   129.8840 </r>
       <r>    11.4294     3.6950   130.3756 </r>
       <r>    11.5624     3.5287   130.8451 </r>
       <r>    11.6954     4.4214   131.4333 </r>
       <r>    11.8285     6.1521   132.2518 </r>
       <r>    11.9615     5.9791   133.0473 </r>
       <r>    12.0946     6.1318   133.8632 </r>
       <r>    12.2276     4.9436   134.5209 </r>
       <r>    12.3607     2.7914   134.8923 </r>
       <r>    12.4937     3.5082   135.3590 </r>
       <r>    12.6268     5.0523   136.0312 </r>
       <r>    12.7598     3.7073   136.5245 </r>
       <r>    12.8929     3.6287   137.0073 </r>
       <r>    13.0259     2.9542   137.4003 </r>
       <r>    13.1590     3.8326   137.9102 </r>
       <r>    13.2920     5.6315   138.6595 </r>
       <r>    13.4251     4.9848   139.3227 </r>
       <r>    13.5581     4.5744   139.9313 </r>
       <r>    13.6911     6.0547   140.7369 </r>
       <r>    13.8242     6.3530   141.5821 </r>
       <r>    13.9572     5.0109   142.2488 </r>
       <r>    14.0903     4.4334   142.8386 </r>
       <r>    14.2233     4.7890   143.4758 </r>
       <r>    14.3564     4.5824   144.0855 </r>
       <r>    14.4894     3.8727   144.6007 </r>
       <r>    14.6225     4.7488   145.2325 </r>
       <r>    14.7555     5.4167   145.9532 </r>
       <r>    14.8886     4.4085   146.5397 </r>
       <r>    15.0216     4.2408   147.1040 </r>
       <r>    15.1547     4.0145   147.6381 </r>
       <r>    15.2877     3.7582   148.1381 </r>
       <r>    15.4208     4.1951   148.6962 </r>
       <r>    15.5538     5.0850   149.3728 </r>
       <r>    15.6868     8.2584   150.4715 </r>
       <r>    15.8199     7.1688   151.4253 </r>
       <r>    15.9529     5.4140   152.1456 </r>
       <r>    16.0860     4.5000   152.7443 </r>
       <r>    16.2190     2.0513   153.0172 </r>
       <r>    16.3521     1.8922   153.2690 </r>
       <r>    16.4851     2.0038   153.5356 </r>
       <r>    16.6182     2.2721   153.8379 </r>
       <r>    16.7512     1.8816   154.0882 </r>
       <r>    16.8843     2.2652   154.3896 </r>
       <r>    17.0173     2.8374   154.7671 </r>
       <r>    17.1504     3.3586   155.2140 </r>
       <r>    17.2834     3.5296   155.6836 </r>
       <r>    17.4165     3.4065   156.1368 </r>
       <r>    17.5495     3.5552   156.6098 </r>
       <r>    17.6825     3.8420   157.1210 </r>
       <r>    17.8156     3.3979   157.5730 </r>
       <r>    17.9486     3.9072   158.0929 </r>
       <r>    18.0817     6.3422   158.9367 </r>
       <r>    18.2147     4.2836   159.5066 </r>
       <r>    18.3478     4.1231   160.0552 </r>
       <r>    18.4808     5.1968   160.7466 </r>
       <r>    18.6139     4.8392   161.3904 </r>
       <r>    18.7469     1.4768   161.5869 </r>
       <r>    18.8800     1.2404   161.7519 </r>
       <r>    19.0130     2.3356   162.0627 </r>
       <r>    19.1461     5.0704   162.7373 </r>
       <r>    19.2791     4.2638   163.3046 </r>
       <r>    19.4122     3.4625   163.7652 </r>
       <r>    19.5452     8.4049   164.8835 </r>
       <r>    19.6782     7.4899   165.8800 </r>
       <r>    19.8113     5.4148   166.6004 </r>
       <r>    19.9443     3.9006   167.1194 </r>
       <r>    20.0774     2.9797   167.5158 </r>
       <r>    20.2104     3.6225   167.9978 </r>
       <r>    20.3435     4.4342   168.5877 </r>
       <r>    20.4765     5.0592   169.2608 </r>
       <r>    20.6096     4.9095   169.9140 </r>
       <r>    20.7426     4.0435   170.4520 </r>
       <r>    20.8757     3.4727   170.9140 </r>
       <r>    21.0087     4.1425   171.4652 </r>
       <r>    21.1418     9.6689   172.7516 </r>
       <r>    21.2748     8.6581   173.9035 </r>
       <r>    21.4079     6.1910   174.7272 </r>
       <r>    21.5409     4.5245   175.3292 </r>
       <r>    21.6739     3.2325   175.7593 </r>
       <r>    21.8070     3.8267   176.2684 </r>
       <r>    21.9400     5.7717   177.0363 </r>
       <r>    22.0731     5.1768   177.7250 </r>
       <r>    22.2061     5.8624   178.5050 </r>
       <r>    22.3392     6.3762   179.3534 </r>
       <r>    22.4722     5.8950   180.1377 </r>
       <r>    22.6053     4.8184   180.7787 </r>
       <r>    22.7383     4.4792   181.3747 </r>
       <r>    22.8714     5.0292   182.0438 </r>
       <r>    23.0044     4.1139   182.5912 </r>
       <r>    23.1375     4.5753   183.1999 </r>
       <r>    23.2705     4.4486   183.7917 </r>
       <r>    23.4036     7.4705   184.7857 </r>
       <r>    23.5366     8.0354   185.8547 </r>
       <r>    23.6696     7.6348   186.8705 </r>
       <r>    23.8027     3.3370   187.3145 </r>
       <r>    23.9357     3.3805   187.7643 </r>
       <r>    24.0688     3.2883   188.2018 </r>
       <r>    24.2018     2.9101   188.5889 </r>
       <r>    24.3349     4.1717   189.1440 </r>
       <r>    24.4679     3.6665   189.6318 </r>
       <r>    24.6010     3.7777   190.1344 </r>
       <r>    24.7340     4.5471   190.7394 </r>
       <r>    24.8671     3.3855   191.1898 </r>
       <r>    25.0001     4.2221   191.7515 </r>
       <r>    25.1332     1.8646   191.9996 </r>
       <r>    25.2662     0.0030   192.0000 </r>
       <r>    25.3993     0.0000   192.0000 </r>
       <r>    25.5323     0.0000   192.0000 </r>
       <r>    25.6653     0.0000   192.0000 </r>
       <r>    25.7984     0.0000   192.0000 </r>
       <r>    25.9314     0.0000   192.0000 </r>
       <r>    26.0645     0.0000   192.0000 </r>
       <r>    26.1975     0.0000   192.0000 </r>
       <r>    26.3306     0.0000   192.0000 </r>
       <r>    26.4636     0.0000   192.0000 </r>
       <r>    26.5967     0.0000   192.0000 </r>
       <r>    26.7297     0.0000   192.0000 </r>
       <r>    26.8628     0.0000   192.0000 </r>
       <r>    26.9958     0.0000   192.0000 </r>
       <r>    27.1289     0.0000   192.0000 </r>
       <r>    27.2619     0.0000   192.0000 </r>
       <r>    27.3950     0.0000   192.0000 </r>
       <r>    27.5280     0.0000   192.0000 </r>
       <r>    27.6610     0.0000   192.0000 </r>
      </set>
     </set>
    </array>
   </total>
  </dos>
  <eigenvalues_kpoints_opt comment="kpoints_opt">
   <kpoints>
    <varray name="kpointlist" >
     <v>       0.00000000       0.00000000       0.00000000 </v>
     <v>      -0.01041667       0.01041667       0.00000000 </v>
     <v>      -0.02083333       0.02083333       0.00000000 </v>
     <v>      -0.03125000       0.03125000       0.00000000 </v>
     <v>      -0.04166667       0.04166667       0.00000000 </v>
     <v>      -0.05208333       0.05208333       0.00000000 </v>
     <v>      -0.06250000       0.06250000       0.00000000 </v>
     <v>      -0.07291667       0.07291667       0.00000000 </v>
     <v>      -0.08333333       0.08333333       0.00000000 </v>
     <v>      -0.09375000       0.09375000       0.00000000 </v>
     <v>      -0.10416667       0.10416667       0.00000000 </v>
     <v>      -0.11458333       0.11458333       0.00000000 </v>
     <v>      -0.12500000       0.12500000       0.00000000 </v>
     <v>      -0.13541667       0.13541667       0.00000000 </v>
     <v>      -0.14583333       0.14583333       0.00000000 </v>
     <v>      -0.15625000       0.15625000       0.00000000 </v>
     <v>      -0.16666667       0.16666667       0.00000000 </v>
     <v>      -0.17708333       0.17708333       0.00000000 </v>
     <v>      -0.18750000       0.18750000       0.00000000 </v>
     <v>      -0.19791667       0.19791667       0.00000000 </v>
     <v>      -0.20833333       0.20833333       0.00000000 </v>
     <v>      -0.21875000       0.21875000       0.00000000 </v>
     <v>      -0.22916667       0.22916667       0.00000000 </v>
     <v>      -0.23958333       0.23958333       0.00000000 </v>
     <v>      -0.25000000       0.25000000       0.00000000 </v>
     <v>      -0.26041667       0.26041667       0.00000000 </v>
     <v>      -0.27083333       0.27083333       0.00000000 </v>
     <v>      -0.28125000       0.28125000       0.00000000 </v>
     <v>      -0.29166667       0.29166667       0.00000000 </v>
     <v>      -0.30208333       0.30208333       0.00000000 </v>
     <v>      -0.31250000       0.31250000       0.00000000 </v>
     <v>      -0.32291667       0.32291667       0.00000000 </v>
     <v>      -0.33333333       0.33333333       0.00000000 </v>
     <v>      -0.34375000       0.34375000       0.00000000 </v>
     <v>      -0.35416667       0.35416667       0.00000000 </v>
     <v>      -0.36458333       0.36458333       0.00000000 </v>
     <v>      -0.37500000       0.37500000       0.00000000 </v>
     <v>      -0.38541667       0.38541667       0.00000000 </v>
     <v>      -0.39583333       0.39583333       0.00000000 </v>
     <v>      -0.40625000       0.40625000       0.00000000 </v>
     <v>      -0.41666667       0.41666667       0.00000000 </v>
     <v>      -0.42708333       0.42708333       0.00000000 </v>
     <v>      -0.43750000       0.43750000       0.00000000 </v>
     <v>      -0.44791667       0.44791667       0.00000000 </v>
     <v>      -0.45833333       0.45833333       0.00000000 </v>
     <v>      -0.46875000       0.46875000       0.00000000 </v>
     <v>      -0.47916667       0.47916667       0.00000000 </v>
     <v>      -0.48958333       0.48958333       0.00000000 </v>
     <v>      -0.50000000       0.50000000       0.00000000 </v>
     <v>      -0.50000000       0.50000000       0.00000000 </v>
     <v>      -0.49659870       0.50340130       0.00000000 </v>
     <v>      -0.49319740       0.50680260       0.00000000 </v>
     <v>      -0.48979611       0.51020389       0.00000000 </v>
     <v>      -0.48639481       0.51360519       0.00000000 </v>
     <v>      -0.48299351       0.51700649       0.00000000 </v>
     <v>      -0.47959221       0.52040779       0.00000000 </v>
     <v>      -0.47619092       0.52380908       0.00000000 </v>
     <v>      -0.47278962       0.52721038       0.00000000 </v>
     <v>      -0.46938832       0.53061168       0.00000000 </v>
     <v>      -0.46598702       0.53401298       0.00000000 </v>
     <v>      -0.46258572       0.53741428       0.00000000 </v>
     <v>      -0.45918443       0.54081557       0.00000000 </v>
     <v>      -0.45578313       0.54421687       0.00000000 </v>
     <v>      -0.45238183       0.54761817       0.00000000 </v>
     <v>      -0.44898053       0.55101947       0.00000000 </v>
     <v>      -0.44557924       0.55442076       0.00000000 </v>
     <v>      -0.44217794       0.55782206       0.00000000 </v>
     <v>      -0.43877664       0.56122336       0.00000000 </v>
     <v>      -0.43537534       0.56462466       0.00000000 </v>
     <v>      -0.43197404       0.56802596       0.00000000 </v>
     <v>      -0.42857275       0.57142725       0.00000000 </v>
     <v>      -0.42517145       0.57482855       0.00000000 </v>
     <v>      -0.42177015       0.57822985       0.00000000 </v>
     <v>      -0.41836885       0.58163115       0.00000000 </v>
     <v>      -0.41496756       0.58503244       0.00000000 </v>
     <v>      -0.41156626       0.58843374       0.00000000 </v>
     <v>      -0.40816496       0.59183504       0.00000000 </v>
     <v>      -0.40476366       0.59523634       0.00000000 </v>
     <v>      -0.40136236       0.59863764       0.00000000 </v>
     <v>      -0.39796107       0.60203893       0.00000000 </v>
     <v>      -0.39455977       0.60544023       0.00000000 </v>
     <v>      -0.39115847       0.60884153       0.00000000 </v>
     <v>      -0.38775717       0.61224283       0.00000000 </v>
     <v>      -0.38435588       0.61564412       0.00000000 </v>
     <v>      -0.38095458       0.61904542       0.00000000 </v>
     <v>      -0.37755328       0.62244672       0.00000000 </v>
     <v>      -0.37415198       0.62584802       0.00000000 </v>
     <v>      -0.37075068       0.62924932       0.00000000 </v>
     <v>      -0.36734939       0.63265061       0.00000000 </v>
     <v>      -0.36394809       0.63605191       0.00000000 </v>
     <v>      -0.36054679       0.63945321       0.00000000 </v>
     <v>      -0.35714549       0.64285451       0.00000000 </v>
     <v>      -0.35374420       0.64625580       0.00000000 </v>
     <v>      -0.35034290       0.64965710       0.00000000 </v>
     <v>      -0.34694160       0.65305840       0.00000000 </v>
     <v>      -0.34354030       0.65645970       0.00000000 </v>
     <v>      -0.34013900       0.65986100       0.00000000 </v>
     <v>      -0.33673771       0.66326229       0.00000000 </v>
     <v>      -0.33673771       0.66326229       0.00000000 </v>
     <v>      -0.32972234       0.64944433       0.00000000 </v>
     <v>      -0.32270697       0.63562636       0.00000000 </v>
     <v>      -0.31569160       0.62180840       0.00000000 </v>
     <v>      -0.30867623       0.60799044       0.00000000 </v>
     <v>      -0.30166086       0.59417247       0.00000000 </v>
     <v>      -0.29464549       0.58035451       0.00000000 </v>
     <v>      -0.28763012       0.56653654       0.00000000 </v>
     <v>      -0.28061476       0.55271858       0.00000000 </v>
     <v>      -0.27359939       0.53890061       0.00000000 </v>
     <v>      -0.26658402       0.52508265       0.00000000 </v>
     <v>      -0.25956865       0.51126468       0.00000000 </v>
     <v>      -0.25255328       0.49744672       0.00000000 </v>
     <v>      -0.24553791       0.48362876       0.00000000 </v>
     <v>      -0.23852254       0.46981079       0.00000000 </v>
     <v>      -0.23150717       0.45599283       0.00000000 </v>
     <v>      -0.22449180       0.44217486       0.00000000 </v>
     <v>      -0.21747644       0.42835690       0.00000000 </v>
     <v>      -0.21046107       0.41453893       0.00000000 </v>
     <v>      -0.20344570       0.40072097       0.00000000 </v>
     <v>      -0.19643033       0.38690300       0.00000000 </v>
     <v>      -0.18941496       0.37308504       0.00000000 </v>
     <v>      -0.18239959       0.35926708       0.00000000 </v>
     <v>      -0.17538422       0.34544911       0.00000000 </v>
     <v>      -0.16836885       0.33163115       0.00000000 </v>
     <v>      -0.16135348       0.31781318       0.00000000 </v>
     <v>      -0.15433812       0.30399522       0.00000000 </v>
     <v>      -0.14732275       0.29017725       0.00000000 </v>
     <v>      -0.14030738       0.27635929       0.00000000 </v>
     <v>      -0.13329201       0.26254132       0.00000000 </v>
     <v>      -0.12627664       0.24872336       0.00000000 </v>
     <v>      -0.11926127       0.23490540       0.00000000 </v>
     <v>      -0.11224590       0.22108743       0.00000000 </v>
     <v>      -0.10523053       0.20726947       0.00000000 </v>
     <v>      -0.09821516       0.19345150       0.00000000 </v>
     <v>      -0.09119980       0.17963354       0.00000000 </v>
     <v>      -0.08418443       0.16581557       0.00000000 </v>
     <v>      -0.07716906       0.15199761       0.00000000 </v>
     <v>      -0.07015369       0.13817964       0.00000000 </v>
     <v>      -0.06313832       0.12436168       0.00000000 </v>
     <v>      -0.05612295       0.11054372       0.00000000 </v>
     <v>      -0.04910758       0.09672575       0.00000000 </v>
     <v>      -0.04209221       0.08290779       0.00000000 </v>
     <v>      -0.03507684       0.06908982       0.00000000 </v>
     <v>      -0.02806148       0.05527186       0.00000000 </v>
     <v>      -0.02104611       0.04145389       0.00000000 </v>
     <v>      -0.01403074       0.02763593       0.00000000 </v>
     <v>      -0.00701537       0.01381796       0.00000000 </v>
     <v>       0.00000000       0.00000000       0.00000000 </v>
    </varray>
    <varray name="weights" >
     <v>       0.00680272 </v>
     <v>       0.00680272 </v>
     <v>       0.00680272 </v>
     <v>       0.00680272 </v>
     <v>       0.00680272 </v>
     <v>       0.00680272 </v>
     <v>       0.00680272 </v>
     <v>       0.00680272 </v>
     <v>       0.00680272 </v>
     <v>       0.00680272 </v>
     <v>       0.00680272 </v>
     <v>       0.00680272 </v>
     <v>       0.00680272 </v>
     <v>       0.00680272 </v>
     <v>       0.00680272 </v>
     <v>       0.00680272 </v>
     <v>       0.00680272 </v>
     <v>       0.00680272 </v>
     <v>       0.00680272 </v>
     <v>       0.00680272 </v>
     <v>       0.00680272 </v>
     <v>       0.00680272 </v>
     <v>       0.00680272 </v>
     <v>       0.00680272 </v>
     <v>       0.00680272 </v>
     <v>       0.00680272 </v>
     <v>       0.00680272 </v>
     <v>       0.00680272 </v>
     <v>       0.00680272 </v>
     <v>       0.00680272 </v>
     <v>       0.00680272 </v>
     <v>       0.00680272 </v>
     <v>       0.00680272 </v>
     <v>       0.00680272 </v>
     <v>       0.00680272 </v>
     <v>       0.00680272 </v>
     <v>       0.00680272 </v>
     <v>       0.00680272 </v>
     <v>       0.00680272 </v>
     <v>       0.00680272 </v>
     <v>       0.00680272 </v>
     <v>       0.00680272 </v>
     <v>       0.00680272 </v>
     <v>       0.00680272 </v>
     <v>       0.00680272 </v>
     <v>       0.00680272 </v>
     <v>       0.00680272 </v>
     <v>       0.00680272 </v>
     <v>       0.00680272 </v>
     <v>       0.00680272 </v>
     <v>       0.00680272 </v>
     <v>       0.00680272 </v>
     <v>       0.00680272 </v>
     <v>       0.00680272 </v>
     <v>       0.00680272 </v>
     <v>       0.00680272 </v>
     <v>       0.00680272 </v>
     <v>       0.00680272 </v>
     <v>       0.00680272 </v>
     <v>       0.00680272 </v>
     <v>       0.00680272 </v>
     <v>       0.00680272 </v>
     <v>       0.00680272 </v>
     <v>       0.00680272 </v>
     <v>       0.00680272 </v>
     <v>       0.00680272 </v>
     <v>       0.00680272 </v>
     <v>       0.00680272 </v>
     <v>       0.00680272 </v>
     <v>       0.00680272 </v>
     <v>       0.00680272 </v>
     <v>       0.00680272 </v>
     <v>       0.00680272 </v>
     <v>       0.00680272 </v>
     <v>       0.00680272 </v>
     <v>       0.00680272 </v>
     <v>       0.00680272 </v>
     <v>       0.00680272 </v>
     <v>       0.00680272 </v>
     <v>       0.00680272 </v>
     <v>       0.00680272 </v>
     <v>       0.00680272 </v>
     <v>       0.00680272 </v>
     <v>       0.00680272 </v>
     <v>       0.00680272 </v>
     <v>       0.00680272 </v>
     <v>       0.00680272 </v>
     <v>       0.00680272 </v>
     <v>       0.00680272 </v>
     <v>       0.00680272 </v>
     <v>       0.00680272 </v>
     <v>       0.00680272 </v>
     <v>       0.00680272 </v>
     <v>       0.00680272 </v>
     <v>       0.00680272 </v>
     <v>       0.00680272 </v>
     <v>       0.00680272 </v>
     <v>       0.00680272 </v>
     <v>       0.00680272 </v>
     <v>       0.00680272 </v>
     <v>       0.00680272 </v>
     <v>       0.00680272 </v>
     <v>       0.00680272 </v>
     <v>       0.00680272 </v>
     <v>       0.00680272 </v>
     <v>       0.00680272 </v>
     <v>       0.00680272 </v>
     <v>       0.00680272 </v>
     <v>       0.00680272 </v>
     <v>       0.00680272 </v>
     <v>       0.00680272 </v>
     <v>       0.00680272 </v>
     <v>       0.00680272 </v>
     <v>       0.00680272 </v>
     <v>       0.00680272 </v>
     <v>       0.00680272 </v>
     <v>       0.00680272 </v>
     <v>       0.00680272 </v>
     <v>       0.00680272 </v>
     <v>       0.00680272 </v>
     <v>       0.00680272 </v>
     <v>       0.00680272 </v>
     <v>       0.00680272 </v>
     <v>       0.00680272 </v>
     <v>       0.00680272 </v>
     <v>       0.00680272 </v>
     <v>       0.00680272 </v>
     <v>       0.00680272 </v>
     <v>       0.00680272 </v>
     <v>       0.00680272 </v>
     <v>       0.00680272 </v>
     <v>       0.00680272 </v>
     <v>       0.00680272 </v>
     <v>       0.00680272 </v>
     <v>       0.00680272 </v>
     <v>       0.00680272 </v>
     <v>       0.00680272 </v>
     <v>       0.00680272 </v>
     <v>       0.00680272 </v>
     <v>       0.00680272 </v>
     <v>       0.00680272 </v>
     <v>       0.00680272 </v>
     <v>       0.00680272 </v>
     <v>       0.00680272 </v>
     <v>       0.00680272 </v>
     <v>       0.00680272 </v>
     <v>       0.00680272 </v>
    </varray>
   </kpoints>
   <eigenvalues>
    <array>
     <dimension dim="1">band</dimension>
     <dimension dim="2">kpoint</dimension>
     <dimension dim="3">spin</dimension>
     <field>eigene</field>
     <set>
      <set comment="spin 1">
       <set comment="kpoint 1">
        <r>  -10.4386 </r>
        <r>  -10.3923 </r>
        <r>  -10.3914 </r>
        <r>  -10.3822 </r>
        <r>  -10.3798 </r>
        <r>  -10.3511 </r>
        <r>  -10.3462 </r>
        <r>  -10.3366 </r>
        <r>  -10.3317 </r>
        <r>  -10.3227 </r>
        <r>  -10.3008 </r>
        <r>  -10.2823 </r>
        <r>  -10.2437 </r>
        <r>  -10.2377 </r>
        <r>  -10.2358 </r>
        <r>  -10.2213 </r>
        <r>  -10.2028 </r>
        <r>  -10.1938 </r>
        <r>  -10.1711 </r>
        <r>  -10.1629 </r>
        <r>  -10.1538 </r>
        <r>  -10.1478 </r>
        <r>  -10.1440 </r>
        <r>  -10.1346 </r>
        <r>  -10.1308 </r>
        <r>  -10.1025 </r>
        <r>  -10.0844 </r>
        <r>  -10.0796 </r>
        <r>  -10.0313 </r>
        <r>  -10.0300 </r>
        <r>  -10.0066 </r>
        <r>  -10.0055 </r>
        <r>   -9.9906 </r>
        <r>   -9.9807 </r>
        <r>   -9.9799 </r>
        <r>   -9.9606 </r>
        <r>   -9.9577 </r>
        <r>   -9.9551 </r>
        <r>   -9.9547 </r>
        <r>   -9.8842 </r>
        <r>   -6.0700 </r>
        <r>   -4.4531 </r>
        <r>   -2.3282 </r>
        <r>    0.4423 </r>
        <r>    0.5361 </r>
        <r>    1.0297 </r>
        <r>    1.5986 </r>
        <r>    2.8408 </r>
        <r>    2.8723 </r>
        <r>    3.0707 </r>
        <r>    3.1938 </r>
        <r>    4.0462 </r>
        <r>    5.5549 </r>
        <r>    5.6449 </r>
        <r>    5.8025 </r>
        <r>    5.8701 </r>
        <r>    5.9431 </r>
        <r>    7.8453 </r>
        <r>    8.3450 </r>
        <r>    8.9072 </r>
        <r>    9.5301 </r>
        <r>    9.7724 </r>
        <r>    9.8546 </r>
        <r>   10.9636 </r>
        <r>   11.3069 </r>
        <r>   11.9546 </r>
        <r>   12.0972 </r>
        <r>   12.5857 </r>
        <r>   12.6196 </r>
        <r>   12.7393 </r>
        <r>   13.0304 </r>
        <r>   13.0590 </r>
        <r>   13.4618 </r>
        <r>   13.6795 </r>
        <r>   14.2362 </r>
        <r>   14.5362 </r>
        <r>   14.6648 </r>
        <r>   15.6593 </r>
        <r>   16.9967 </r>
        <r>   17.6190 </r>
        <r>   18.4138 </r>
        <r>   19.5106 </r>
        <r>   20.4964 </r>
        <r>   20.5856 </r>
        <r>   20.6378 </r>
        <r>   20.8828 </r>
        <r>   21.2364 </r>
        <r>   23.0142 </r>
        <r>   23.2782 </r>
        <r>   23.3774 </r>
        <r>   24.0547 </r>
        <r>   24.3389 </r>
        <r>   24.6792 </r>
        <r>   24.7561 </r>
        <r>   24.9375 </r>
        <r>   25.0206 </r>
       </set>
       <set comment="kpoint 2">
        <r>  -10.4386 </r>
        <r>  -10.3923 </r>
        <r>  -10.3916 </r>
        <r>  -10.3821 </r>
        <r>  -10.3797 </r>
        <r>  -10.3510 </r>
        <r>  -10.3462 </r>
        <r>  -10.3367 </r>
        <r>  -10.3316 </r>
        <r>  -10.3226 </r>
        <r>  -10.3008 </r>
        <r>  -10.2824 </r>
        <r>  -10.2437 </r>
        <r>  -10.2379 </r>
        <r>  -10.2358 </r>
        <r>  -10.2213 </r>
        <r>  -10.2031 </r>
        <r>  -10.1938 </r>
        <r>  -10.1710 </r>
        <r>  -10.1633 </r>
        <r>  -10.1533 </r>
        <r>  -10.1477 </r>
        <r>  -10.1439 </r>
        <r>  -10.1346 </r>
        <r>  -10.1308 </r>
        <r>  -10.1025 </r>
        <r>  -10.0843 </r>
        <r>  -10.0798 </r>
        <r>  -10.0312 </r>
        <r>  -10.0301 </r>
        <r>  -10.0068 </r>
        <r>  -10.0054 </r>
        <r>   -9.9906 </r>
        <r>   -9.9805 </r>
        <r>   -9.9799 </r>
        <r>   -9.9608 </r>
        <r>   -9.9577 </r>
        <r>   -9.9552 </r>
        <r>   -9.9545 </r>
        <r>   -9.8842 </r>
        <r>   -6.0690 </r>
        <r>   -4.4533 </r>
        <r>   -2.3260 </r>
        <r>    0.4423 </r>
        <r>    0.5193 </r>
        <r>    1.0304 </r>
        <r>    1.6159 </r>
        <r>    2.7896 </r>
        <r>    2.8413 </r>
        <r>    3.1538 </r>
        <r>    3.1937 </r>
        <r>    4.0415 </r>
        <r>    5.5614 </r>
        <r>    5.5885 </r>
        <r>    5.8046 </r>
        <r>    5.9299 </r>
        <r>    5.9452 </r>
        <r>    7.8282 </r>
        <r>    8.3318 </r>
        <r>    8.9235 </r>
        <r>    9.5236 </r>
        <r>    9.7877 </r>
        <r>    9.8374 </r>
        <r>   10.9808 </r>
        <r>   11.3007 </r>
        <r>   11.9473 </r>
        <r>   12.0821 </r>
        <r>   12.5834 </r>
        <r>   12.6223 </r>
        <r>   12.7237 </r>
        <r>   13.0161 </r>
        <r>   13.0812 </r>
        <r>   13.4666 </r>
        <r>   13.6939 </r>
        <r>   14.2578 </r>
        <r>   14.5458 </r>
        <r>   14.6761 </r>
        <r>   15.6474 </r>
        <r>   17.0024 </r>
        <r>   17.6133 </r>
        <r>   18.3989 </r>
        <r>   19.5044 </r>
        <r>   20.4470 </r>
        <r>   20.6146 </r>
        <r>   20.6318 </r>
        <r>   20.9305 </r>
        <r>   21.2512 </r>
        <r>   22.9627 </r>
        <r>   23.3038 </r>
        <r>   23.3668 </r>
        <r>   24.0489 </r>
        <r>   24.3309 </r>
        <r>   24.6729 </r>
        <r>   24.7136 </r>
        <r>   24.9124 </r>
        <r>   25.0163 </r>
       </set>
       <set comment="kpoint 3">
        <r>  -10.4385 </r>
        <r>  -10.3923 </r>
        <r>  -10.3919 </r>
        <r>  -10.3820 </r>
        <r>  -10.3795 </r>
        <r>  -10.3511 </r>
        <r>  -10.3459 </r>
        <r>  -10.3368 </r>
        <r>  -10.3314 </r>
        <r>  -10.3224 </r>
        <r>  -10.3007 </r>
        <r>  -10.2826 </r>
        <r>  -10.2439 </r>
        <r>  -10.2382 </r>
        <r>  -10.2358 </r>
        <r>  -10.2212 </r>
        <r>  -10.2038 </r>
        <r>  -10.1934 </r>
        <r>  -10.1709 </r>
        <r>  -10.1645 </r>
        <r>  -10.1519 </r>
        <r>  -10.1475 </r>
        <r>  -10.1436 </r>
        <r>  -10.1344 </r>
        <r>  -10.1309 </r>
        <r>  -10.1026 </r>
        <r>  -10.0840 </r>
        <r>  -10.0802 </r>
        <r>  -10.0310 </r>
        <r>  -10.0305 </r>
        <r>  -10.0073 </r>
        <r>  -10.0051 </r>
        <r>   -9.9906 </r>
        <r>   -9.9800 </r>
        <r>   -9.9799 </r>
        <r>   -9.9613 </r>
        <r>   -9.9579 </r>
        <r>   -9.9555 </r>
        <r>   -9.9539 </r>
        <r>   -9.8843 </r>
        <r>   -6.0659 </r>
        <r>   -4.4540 </r>
        <r>   -2.3193 </r>
        <r>    0.4424 </r>
        <r>    0.4719 </r>
        <r>    1.0323 </r>
        <r>    1.6648 </r>
        <r>    2.6513 </r>
        <r>    2.8427 </r>
        <r>    3.1935 </r>
        <r>    3.2933 </r>
        <r>    4.0275 </r>
        <r>    5.4841 </r>
        <r>    5.5806 </r>
        <r>    5.8110 </r>
        <r>    5.9514 </r>
        <r>    6.0445 </r>
        <r>    7.7798 </r>
        <r>    8.2937 </r>
        <r>    8.9694 </r>
        <r>    9.5044 </r>
        <r>    9.7889 </r>
        <r>    9.8318 </r>
        <r>   11.0291 </r>
        <r>   11.2826 </r>
        <r>   11.9259 </r>
        <r>   12.0376 </r>
        <r>   12.5762 </r>
        <r>   12.6230 </r>
        <r>   12.6940 </r>
        <r>   12.9805 </r>
        <r>   13.1379 </r>
        <r>   13.4814 </r>
        <r>   13.7296 </r>
        <r>   14.3217 </r>
        <r>   14.5741 </r>
        <r>   14.7094 </r>
        <r>   15.6126 </r>
        <r>   17.0188 </r>
        <r>   17.5964 </r>
        <r>   18.3551 </r>
        <r>   19.4872 </r>
        <r>   20.3720 </r>
        <r>   20.5755 </r>
        <r>   20.6975 </r>
        <r>   21.0414 </r>
        <r>   21.2951 </r>
        <r>   22.8415 </r>
        <r>   23.3343 </r>
        <r>   23.3503 </r>
        <r>   24.0319 </r>
        <r>   24.3022 </r>
        <r>   24.6093 </r>
        <r>   24.6478 </r>
        <r>   24.8557 </r>
        <r>   25.0110 </r>
       </set>
       <set comment="kpoint 4">
        <r>  -10.4384 </r>
        <r>  -10.3924 </r>
        <r>  -10.3923 </r>
        <r>  -10.3817 </r>
        <r>  -10.3792 </r>
        <r>  -10.3512 </r>
        <r>  -10.3454 </r>
        <r>  -10.3370 </r>
        <r>  -10.3311 </r>
        <r>  -10.3221 </r>
        <r>  -10.3005 </r>
        <r>  -10.2829 </r>
        <r>  -10.2442 </r>
        <r>  -10.2387 </r>
        <r>  -10.2359 </r>
        <r>  -10.2212 </r>
        <r>  -10.2051 </r>
        <r>  -10.1929 </r>
        <r>  -10.1707 </r>
        <r>  -10.1660 </r>
        <r>  -10.1501 </r>
        <r>  -10.1471 </r>
        <r>  -10.1431 </r>
        <r>  -10.1342 </r>
        <r>  -10.1311 </r>
        <r>  -10.1026 </r>
        <r>  -10.0837 </r>
        <r>  -10.0809 </r>
        <r>  -10.0310 </r>
        <r>  -10.0307 </r>
        <r>  -10.0080 </r>
        <r>  -10.0046 </r>
        <r>   -9.9907 </r>
        <r>   -9.9798 </r>
        <r>   -9.9793 </r>
        <r>   -9.9618 </r>
        <r>   -9.9583 </r>
        <r>   -9.9560 </r>
        <r>   -9.9531 </r>
        <r>   -9.8843 </r>
        <r>   -6.0607 </r>
        <r>   -4.4551 </r>
        <r>   -2.3081 </r>
        <r>    0.4009 </r>
        <r>    0.4424 </r>
        <r>    1.0356 </r>
        <r>    1.7382 </r>
        <r>    2.5052 </r>
        <r>    2.8452 </r>
        <r>    3.1931 </r>
        <r>    3.4415 </r>
        <r>    4.0051 </r>
        <r>    5.3720 </r>
        <r>    5.6118 </r>
        <r>    5.8215 </r>
        <r>    5.9618 </r>
        <r>    6.1737 </r>
        <r>    7.7070 </r>
        <r>    8.2348 </r>
        <r>    9.0378 </r>
        <r>    9.4730 </r>
        <r>    9.7156 </r>
        <r>    9.9009 </r>
        <r>   11.1005 </r>
        <r>   11.2552 </r>
        <r>   11.8917 </r>
        <r>   11.9661 </r>
        <r>   12.5634 </r>
        <r>   12.5915 </r>
        <r>   12.6943 </r>
        <r>   12.9372 </r>
        <r>   13.2148 </r>
        <r>   13.5071 </r>
        <r>   13.7739 </r>
        <r>   14.4250 </r>
        <r>   14.6199 </r>
        <r>   14.7635 </r>
        <r>   15.5571 </r>
        <r>   17.0433 </r>
        <r>   17.5684 </r>
        <r>   18.2842 </r>
        <r>   19.4619 </r>
        <r>   20.3000 </r>
        <r>   20.5464 </r>
        <r>   20.7552 </r>
        <r>   21.1844 </r>
        <r>   21.3665 </r>
        <r>   22.6830 </r>
        <r>   23.2771 </r>
        <r>   23.3932 </r>
        <r>   24.0046 </r>
        <r>   24.2330 </r>
        <r>   24.4970 </r>
        <r>   24.5897 </r>
        <r>   24.8086 </r>
        <r>   25.0097 </r>
       </set>
       <set comment="kpoint 5">
        <r>  -10.4382 </r>
        <r>  -10.3929 </r>
        <r>  -10.3925 </r>
        <r>  -10.3814 </r>
        <r>  -10.3787 </r>
        <r>  -10.3514 </r>
        <r>  -10.3448 </r>
        <r>  -10.3374 </r>
        <r>  -10.3307 </r>
        <r>  -10.3216 </r>
        <r>  -10.3003 </r>
        <r>  -10.2834 </r>
        <r>  -10.2446 </r>
        <r>  -10.2393 </r>
        <r>  -10.2360 </r>
        <r>  -10.2210 </r>
        <r>  -10.2068 </r>
        <r>  -10.1921 </r>
        <r>  -10.1706 </r>
        <r>  -10.1676 </r>
        <r>  -10.1481 </r>
        <r>  -10.1466 </r>
        <r>  -10.1424 </r>
        <r>  -10.1339 </r>
        <r>  -10.1313 </r>
        <r>  -10.1026 </r>
        <r>  -10.0831 </r>
        <r>  -10.0818 </r>
        <r>  -10.0317 </r>
        <r>  -10.0301 </r>
        <r>  -10.0090 </r>
        <r>  -10.0039 </r>
        <r>   -9.9908 </r>
        <r>   -9.9798 </r>
        <r>   -9.9782 </r>
        <r>   -9.9625 </r>
        <r>   -9.9588 </r>
        <r>   -9.9566 </r>
        <r>   -9.9521 </r>
        <r>   -9.8844 </r>
        <r>   -6.0534 </r>
        <r>   -4.4566 </r>
        <r>   -2.2925 </r>
        <r>    0.3133 </r>
        <r>    0.4422 </r>
        <r>    1.0402 </r>
        <r>    1.8285 </r>
        <r>    2.3577 </r>
        <r>    2.8494 </r>
        <r>    3.1927 </r>
        <r>    3.5922 </r>
        <r>    3.9753 </r>
        <r>    5.2600 </r>
        <r>    5.6538 </r>
        <r>    5.8360 </r>
        <r>    5.9764 </r>
        <r>    6.3094 </r>
        <r>    7.6169 </r>
        <r>    8.1599 </r>
        <r>    9.1211 </r>
        <r>    9.4301 </r>
        <r>    9.6248 </r>
        <r>    9.9900 </r>
        <r>   11.1709 </r>
        <r>   11.2369 </r>
        <r>   11.8464 </r>
        <r>   11.8720 </r>
        <r>   12.5334 </r>
        <r>   12.5443 </r>
        <r>   12.7262 </r>
        <r>   12.8961 </r>
        <r>   13.3038 </r>
        <r>   13.5445 </r>
        <r>   13.8194 </r>
        <r>   14.5610 </r>
        <r>   14.6815 </r>
        <r>   14.8368 </r>
        <r>   15.4838 </r>
        <r>   17.0727 </r>
        <r>   17.5299 </r>
        <r>   18.1894 </r>
        <r>   19.4321 </r>
        <r>   20.2363 </r>
        <r>   20.5326 </r>
        <r>   20.8030 </r>
        <r>   21.3475 </r>
        <r>   21.4608 </r>
        <r>   22.5006 </r>
        <r>   23.1919 </r>
        <r>   23.4287 </r>
        <r>   23.9684 </r>
        <r>   24.1007 </r>
        <r>   24.4229 </r>
        <r>   24.5046 </r>
        <r>   24.7881 </r>
        <r>   25.0109 </r>
       </set>
       <set comment="kpoint 6">
        <r>  -10.4380 </r>
        <r>  -10.3936 </r>
        <r>  -10.3926 </r>
        <r>  -10.3810 </r>
        <r>  -10.3783 </r>
        <r>  -10.3517 </r>
        <r>  -10.3439 </r>
        <r>  -10.3377 </r>
        <r>  -10.3302 </r>
        <r>  -10.3210 </r>
        <r>  -10.2999 </r>
        <r>  -10.2841 </r>
        <r>  -10.2450 </r>
        <r>  -10.2401 </r>
        <r>  -10.2362 </r>
        <r>  -10.2207 </r>
        <r>  -10.2089 </r>
        <r>  -10.1911 </r>
        <r>  -10.1704 </r>
        <r>  -10.1693 </r>
        <r>  -10.1459 </r>
        <r>  -10.1459 </r>
        <r>  -10.1415 </r>
        <r>  -10.1336 </r>
        <r>  -10.1316 </r>
        <r>  -10.1026 </r>
        <r>  -10.0829 </r>
        <r>  -10.0825 </r>
        <r>  -10.0326 </r>
        <r>  -10.0294 </r>
        <r>  -10.0102 </r>
        <r>  -10.0030 </r>
        <r>   -9.9909 </r>
        <r>   -9.9798 </r>
        <r>   -9.9771 </r>
        <r>   -9.9631 </r>
        <r>   -9.9595 </r>
        <r>   -9.9574 </r>
        <r>   -9.9510 </r>
        <r>   -9.8845 </r>
        <r>   -6.0441 </r>
        <r>   -4.4584 </r>
        <r>   -2.2726 </r>
        <r>    0.2149 </r>
        <r>    0.4416 </r>
        <r>    1.0460 </r>
        <r>    1.9294 </r>
        <r>    2.2105 </r>
        <r>    2.8558 </r>
        <r>    3.1921 </r>
        <r>    3.7439 </r>
        <r>    3.9392 </r>
        <r>    5.1500 </r>
        <r>    5.7055 </r>
        <r>    5.8545 </r>
        <r>    5.9949 </r>
        <r>    6.4496 </r>
        <r>    7.5152 </r>
        <r>    8.0735 </r>
        <r>    9.2127 </r>
        <r>    9.3769 </r>
        <r>    9.5221 </r>
        <r>   10.0947 </r>
        <r>   11.1515 </r>
        <r>   11.3124 </r>
        <r>   11.7613 </r>
        <r>   11.7923 </r>
        <r>   12.4672 </r>
        <r>   12.5186 </r>
        <r>   12.7738 </r>
        <r>   12.8613 </r>
        <r>   13.4011 </r>
        <r>   13.5940 </r>
        <r>   13.8648 </r>
        <r>   14.7215 </r>
        <r>   14.7571 </r>
        <r>   14.9271 </r>
        <r>   15.3956 </r>
        <r>   17.1027 </r>
        <r>   17.4824 </r>
        <r>   18.0750 </r>
        <r>   19.4006 </r>
        <r>   20.1831 </r>
        <r>   20.5334 </r>
        <r>   20.8434 </r>
        <r>   21.5241 </r>
        <r>   21.5714 </r>
        <r>   22.3015 </r>
        <r>   23.0767 </r>
        <r>   23.4583 </r>
        <r>   23.9230 </r>
        <r>   23.9253 </r>
        <r>   24.3827 </r>
        <r>   24.4176 </r>
        <r>   24.7835 </r>
        <r>   25.0133 </r>
       </set>
       <set comment="kpoint 7">
        <r>  -10.4377 </r>
        <r>  -10.3943 </r>
        <r>  -10.3928 </r>
        <r>  -10.3805 </r>
        <r>  -10.3777 </r>
        <r>  -10.3520 </r>
        <r>  -10.3430 </r>
        <r>  -10.3382 </r>
        <r>  -10.3295 </r>
        <r>  -10.3203 </r>
        <r>  -10.2995 </r>
        <r>  -10.2848 </r>
        <r>  -10.2455 </r>
        <r>  -10.2410 </r>
        <r>  -10.2365 </r>
        <r>  -10.2204 </r>
        <r>  -10.2114 </r>
        <r>  -10.1900 </r>
        <r>  -10.1710 </r>
        <r>  -10.1704 </r>
        <r>  -10.1451 </r>
        <r>  -10.1436 </r>
        <r>  -10.1402 </r>
        <r>  -10.1332 </r>
        <r>  -10.1320 </r>
        <r>  -10.1026 </r>
        <r>  -10.0842 </r>
        <r>  -10.0817 </r>
        <r>  -10.0337 </r>
        <r>  -10.0286 </r>
        <r>  -10.0114 </r>
        <r>  -10.0020 </r>
        <r>   -9.9910 </r>
        <r>   -9.9797 </r>
        <r>   -9.9757 </r>
        <r>   -9.9638 </r>
        <r>   -9.9602 </r>
        <r>   -9.9583 </r>
        <r>   -9.9499 </r>
        <r>   -9.8846 </r>
        <r>   -6.0327 </r>
        <r>   -4.4605 </r>
        <r>   -2.2485 </r>
[...]
       <r>   22.7289    0.0000 </r>
      </set>
      <set comment="kpoint 125">
       <r>  -10.3859    1.0000 </r>
       <r>  -10.3859    1.0000 </r>
       <r>  -10.3859    1.0000 </r>
       <r>  -10.3859    1.0000 </r>
       <r>  -10.3479    1.0000 </r>
       <r>  -10.3479    1.0000 </r>
       <r>  -10.3479    1.0000 </r>
       <r>  -10.3479    1.0000 </r>
       <r>  -10.3181    1.0000 </r>
       <r>  -10.3181    1.0000 </r>
       <r>  -10.3181    1.0000 </r>
       <r>  -10.3181    1.0000 </r>
       <r>  -10.3173    1.0000 </r>
       <r>  -10.3173    1.0000 </r>
       <r>  -10.3173    1.0000 </r>
       <r>  -10.3173    1.0000 </r>
       <r>  -10.1385    1.0000 </r>
       <r>  -10.1385    1.0000 </r>
       <r>  -10.1385    1.0000 </r>
       <r>  -10.1385    1.0000 </r>
       <r>  -10.1361    1.0000 </r>
       <r>  -10.1361    1.0000 </r>
       <r>  -10.1361    1.0000 </r>
       <r>  -10.1361    1.0000 </r>
       <r>  -10.0648    1.0000 </r>
       <r>  -10.0648    1.0000 </r>
       <r>  -10.0648    1.0000 </r>
       <r>  -10.0648    1.0000 </r>
       <r>  -10.0591    1.0000 </r>
       <r>  -10.0591    1.0000 </r>
       <r>  -10.0591    1.0000 </r>
       <r>  -10.0591    1.0000 </r>
       <r>   -9.9614    1.0000 </r>
       <r>   -9.9614    1.0000 </r>
       <r>   -9.9614    1.0000 </r>
       <r>   -9.9614    1.0000 </r>
       <r>   -9.9233    1.0000 </r>
       <r>   -9.9233    1.0000 </r>
       <r>   -9.9233    1.0000 </r>
       <r>   -9.9233    1.0000 </r>
       <r>   -2.3362    1.0000 </r>
       <r>   -2.3362    1.0000 </r>
       <r>   -2.3362    1.0000 </r>
       <r>   -2.3362    1.0000 </r>
       <r>   -1.4011    1.0000 </r>
       <r>   -1.4011    1.0000 </r>
       <r>   -1.4011    1.0000 </r>
       <r>   -1.4011    1.0000 </r>
       <r>    3.2569    1.0000 </r>
       <r>    3.2569    1.0000 </r>
       <r>    3.2569    1.0000 </r>
       <r>    3.2569    1.0000 </r>
       <r>    5.2159    0.0000 </r>
       <r>    5.2159    0.0000 </r>
       <r>    5.2159    0.0000 </r>
       <r>    5.2159    0.0000 </r>
       <r>   11.6163    0.0000 </r>
       <r>   11.6163    0.0000 </r>
       <r>   11.6163    0.0000 </r>
       <r>   11.6163    0.0000 </r>
       <r>   12.1915    0.0000 </r>
       <r>   12.1915    0.0000 </r>
       <r>   12.1915    0.0000 </r>
       <r>   12.1915    0.0000 </r>
       <r>   13.0807    0.0000 </r>
       <r>   13.0807    0.0000 </r>
       <r>   13.0807    0.0000 </r>
       <r>   13.0807    0.0000 </r>
       <r>   14.0978    0.0000 </r>
       <r>   14.0978    0.0000 </r>
       <r>   14.0978    0.0000 </r>
       <r>   14.0978    0.0000 </r>
       <r>   14.2521    0.0000 </r>
       <r>   14.2521    0.0000 </r>
       <r>   14.2521    0.0000 </r>
       <r>   14.2521    0.0000 </r>
       <r>   15.5946    0.0000 </r>
       <r>   15.5946    0.0000 </r>
       <r>   15.5946    0.0000 </r>
       <r>   15.5946    0.0000 </r>
       <r>   19.0017    0.0000 </r>
       <r>   19.0017    0.0000 </r>
       <r>   19.0017    0.0000 </r>
       <r>   19.0017    0.0000 </r>
       <r>   19.0969    0.0000 </r>
       <r>   19.0969    0.0000 </r>
       <r>   19.0969    0.0000 </r>
       <r>   19.0969    0.0000 </r>
       <r>   19.9355    0.0000 </r>
       <r>   19.9355    0.0000 </r>
       <r>   19.9355    0.0000 </r>
       <r>   19.9355    0.0000 </r>
       <r>   21.1107    0.0000 </r>
       <r>   21.1107    0.0000 </r>
       <r>   21.1107    0.0000 </r>
       <r>   21.1107    0.0000 </r>
      </set>
     </set>
    </set>
   </array>
  </eigenvalues>
  <separator name="orbital magnetization" >
   <v name="MAGDIPOLOUT">      0.00000000      0.00000000      0.00000000</v>
  </separator>
  <dos>
   <i name="efermi">      4.69305216 </i>
   <total>
    <array>
     <dimension dim="1">gridpoints</dimension>
     <dimension dim="2">spin</dimension>
     <field>energy</field>
     <field>total</field>
     <field>integrated</field>
     <set>
      <set comment="spin 1">
       <r>   -12.2530     0.0000     0.0000 </r>
       <r>   -12.1199     0.0000     0.0000 </r>
       <r>   -11.9869     0.0000     0.0000 </r>
       <r>   -11.8538     0.0000     0.0000 </r>
       <r>   -11.7208     0.0000     0.0000 </r>
       <r>   -11.5877     0.0000     0.0000 </r>
       <r>   -11.4547     0.0000     0.0000 </r>
       <r>   -11.3216     0.0000     0.0000 </r>
       <r>   -11.1886     0.0000     0.0000 </r>
       <r>   -11.0555     0.0000     0.0000 </r>
       <r>   -10.9225     0.0000     0.0000 </r>
       <r>   -10.7894     0.0000     0.0000 </r>
       <r>   -10.6564     0.0000     0.0000 </r>
       <r>   -10.5233     0.0351     0.0047 </r>
       <r>   -10.3903    42.4556     5.6532 </r>
       <r>   -10.2573   167.6628    27.9602 </r>
       <r>   -10.1242   127.8459    44.9697 </r>
       <r>    -9.9912   160.5645    66.3323 </r>
       <r>    -9.8581   100.3159    79.6790 </r>
       <r>    -9.7251     2.4130    80.0000 </r>
       <r>    -9.5920     0.0000    80.0000 </r>
       <r>    -9.4590     0.0000    80.0000 </r>
       <r>    -9.3259     0.0000    80.0000 </r>
       <r>    -9.1929     0.0000    80.0000 </r>
       <r>    -9.0598     0.0000    80.0000 </r>
       <r>    -8.9268     0.0000    80.0000 </r>
       <r>    -8.7937     0.0000    80.0000 </r>
       <r>    -8.6607     0.0000    80.0000 </r>
       <r>    -8.5276     0.0000    80.0000 </r>
       <r>    -8.3946     0.0000    80.0000 </r>
       <r>    -8.2616     0.0000    80.0000 </r>
       <r>    -8.1285     0.0000    80.0000 </r>
       <r>    -7.9955     0.0000    80.0000 </r>
       <r>    -7.8624     0.0000    80.0000 </r>
       <r>    -7.7294     0.0000    80.0000 </r>
       <r>    -7.5963     0.0000    80.0000 </r>
       <r>    -7.4633     0.0000    80.0000 </r>
       <r>    -7.3302     0.0000    80.0000 </r>
       <r>    -7.1972     0.0000    80.0000 </r>
       <r>    -7.0641     0.0000    80.0000 </r>
       <r>    -6.9311     0.0000    80.0000 </r>
       <r>    -6.7980     0.0000    80.0000 </r>
       <r>    -6.6650     0.0000    80.0000 </r>
       <r>    -6.5319     0.0000    80.0000 </r>
       <r>    -6.3989     0.0000    80.0000 </r>
       <r>    -6.2659     0.0000    80.0000 </r>
       <r>    -6.1328     0.0013    80.0002 </r>
       <r>    -5.9998     0.0944    80.0127 </r>
       <r>    -5.8667     0.4457    80.0720 </r>
       <r>    -5.7337     0.6212    80.1547 </r>
       <r>    -5.6006     0.5776    80.2315 </r>
       <r>    -5.4676     1.0988    80.3777 </r>
       <r>    -5.3345     1.0099    80.5121 </r>
       <r>    -5.2015     0.7402    80.6106 </r>
       <r>    -5.0684     1.0257    80.7470 </r>
       <r>    -4.9354     1.4973    80.9462 </r>
       <r>    -4.8023     1.4127    81.1342 </r>
       <r>    -4.6693     1.1729    81.2902 </r>
       <r>    -4.5362     1.8447    81.5357 </r>
       <r>    -4.4032     1.3469    81.7149 </r>
       <r>    -4.2702     1.8059    81.9551 </r>
       <r>    -4.1371     1.3619    82.1363 </r>
       <r>    -4.0041     2.4905    82.4677 </r>
       <r>    -3.8710     1.5605    82.6753 </r>
       <r>    -3.7380     2.0822    82.9523 </r>
       <r>    -3.6049     1.5612    83.1600 </r>
       <r>    -3.4719     1.4211    83.3491 </r>
       <r>    -3.3388     1.3917    83.5343 </r>
       <r>    -3.2058     2.0127    83.8021 </r>
       <r>    -3.0727     2.1386    84.0866 </r>
       <r>    -2.9397     2.1850    84.3773 </r>
       <r>    -2.8066     1.4782    84.5740 </r>
       <r>    -2.6736     2.1163    84.8556 </r>
       <r>    -2.5405     1.8784    85.1055 </r>
       <r>    -2.4075     1.7993    85.3449 </r>
       <r>    -2.2745     2.0009    85.6111 </r>
       <r>    -2.1414     2.3796    85.9277 </r>
       <r>    -2.0084     1.8485    86.1736 </r>
       <r>    -1.8753     2.5745    86.5161 </r>
       <r>    -1.7423     1.6507    86.7357 </r>
       <r>    -1.6092     2.5808    87.0791 </r>
       <r>    -1.4762     2.5621    87.4200 </r>
       <r>    -1.3431     2.0758    87.6962 </r>
       <r>    -1.2101     1.3239    87.8723 </r>
       <r>    -1.0770     2.5563    88.2124 </r>
       <r>    -0.9440     1.5991    88.4252 </r>
       <r>    -0.8109     1.9229    88.6810 </r>
       <r>    -0.6779     2.2888    88.9855 </r>
       <r>    -0.5448     3.6521    89.4714 </r>
       <r>    -0.4118     3.5777    89.9474 </r>
       <r>    -0.2788     2.4229    90.2698 </r>
       <r>    -0.1457     2.0482    90.5423 </r>
       <r>    -0.0127     2.4948    90.8742 </r>
       <r>     0.1204     2.4309    91.1976 </r>
       <r>     0.2534     1.8896    91.4490 </r>
       <r>     0.3865     2.2895    91.7536 </r>
       <r>     0.5195     2.5809    92.0970 </r>
       <r>     0.6526     2.1003    92.3764 </r>
       <r>     0.7856     1.7195    92.6052 </r>
       <r>     0.9187     1.7487    92.8379 </r>
       <r>     1.0517     1.8481    93.0838 </r>
       <r>     1.1848     1.6712    93.3061 </r>
       <r>     1.3178     2.3693    93.6213 </r>
       <r>     1.4509     2.9783    94.0176 </r>
       <r>     1.5839     2.7395    94.3821 </r>
       <r>     1.7169     2.2366    94.6796 </r>
       <r>     1.8500     3.1637    95.1006 </r>
       <r>     1.9830     2.8773    95.4834 </r>
       <r>     2.1161     2.6571    95.8369 </r>
       <r>     2.2491     2.9492    96.2293 </r>
       <r>     2.3822     2.4732    96.5583 </r>
       <r>     2.5152     1.7341    96.7890 </r>
       <r>     2.6483     2.3927    97.1074 </r>
       <r>     2.7813     3.6955    97.5991 </r>
       <r>     2.9144     3.9431    98.1237 </r>
       <r>     3.0474     3.7695    98.6252 </r>
       <r>     3.1805     3.9092    99.1453 </r>
       <r>     3.3135     3.9992    99.6774 </r>
       <r>     3.4466     3.8477   100.1893 </r>
       <r>     3.5796     3.8986   100.7080 </r>
       <r>     3.7126     3.9140   101.2288 </r>
       <r>     3.8457     3.9557   101.7551 </r>
       <r>     3.9787     3.4680   102.2165 </r>
       <r>     4.1118     3.8181   102.7245 </r>
       <r>     4.2448     2.2049   103.0178 </r>
       <r>     4.3779     1.8691   103.2665 </r>
       <r>     4.5109     2.2437   103.5650 </r>
       <r>     4.6440     2.4007   103.8844 </r>
       <r>     4.7770     1.9299   104.1412 </r>
       <r>     4.9101     1.8016   104.3809 </r>
       <r>     5.0431     1.7116   104.6086 </r>
       <r>     5.1762     2.5196   104.9438 </r>
       <r>     5.3092     2.2161   105.2387 </r>
       <r>     5.4423     2.9065   105.6254 </r>
       <r>     5.5753     3.5575   106.0987 </r>
       <r>     5.7083     5.2862   106.8020 </r>
       <r>     5.8414     3.7547   107.3016 </r>
       <r>     5.9744     3.9298   107.8244 </r>
       <r>     6.1075     3.3495   108.2700 </r>
       <r>     6.2405     3.6523   108.7560 </r>
       <r>     6.3736     3.3415   109.2005 </r>
       <r>     6.5066     3.3963   109.6524 </r>
       <r>     6.6397     4.4003   110.2379 </r>
       <r>     6.7727     2.5464   110.5766 </r>
       <r>     6.9058     2.8749   110.9591 </r>
       <r>     7.0388     2.1922   111.2508 </r>
       <r>     7.1719     3.4335   111.7076 </r>
       <r>     7.3049     4.7265   112.3365 </r>
       <r>     7.4380     3.9855   112.8667 </r>
       <r>     7.5710     4.6892   113.4906 </r>
       <r>     7.7040     4.3941   114.0752 </r>
       <r>     7.8371     4.2014   114.6342 </r>
       <r>     7.9701     2.8956   115.0195 </r>
       <r>     8.1032     2.9745   115.4152 </r>
       <r>     8.2362     3.8215   115.9236 </r>
       <r>     8.3693     3.4467   116.3822 </r>
       <r>     8.5023     4.1073   116.9287 </r>
       <r>     8.6354     4.5669   117.5363 </r>
       <r>     8.7684     4.4885   118.1335 </r>
       <r>     8.9015     3.7348   118.6304 </r>
       <r>     9.0345     4.7059   119.2565 </r>
       <r>     9.1676     3.8621   119.7703 </r>
       <r>     9.3006     4.0227   120.3055 </r>
       <r>     9.4337     5.1513   120.9909 </r>
       <r>     9.5667     3.4708   121.4527 </r>
       <r>     9.6997     4.7333   122.0824 </r>
       <r>     9.8328     4.1695   122.6372 </r>
       <r>     9.9658     4.0305   123.1734 </r>
       <r>    10.0989     3.8997   123.6922 </r>
       <r>    10.2319     3.7444   124.1904 </r>
       <r>    10.3650     3.9620   124.7176 </r>
       <r>    10.4980     4.4279   125.3067 </r>
       <r>    10.6311     4.0930   125.8512 </r>
       <r>    10.7641     4.8601   126.4978 </r>
       <r>    10.8972     4.2827   127.0676 </r>
       <r>    11.0302     3.4321   127.5243 </r>
       <r>    11.1633     2.6257   127.8736 </r>
       <r>    11.2963     3.6978   128.3656 </r>
       <r>    11.4294     4.3425   128.9434 </r>
       <r>    11.5624     3.8092   129.4502 </r>
       <r>    11.6954     4.6122   130.0638 </r>
       <r>    11.8285     5.6331   130.8133 </r>
       <r>    11.9615     4.4273   131.4023 </r>
       <r>    12.0946     4.7138   132.0295 </r>
       <r>    12.2276     4.3297   132.6055 </r>
       <r>    12.3607     3.1241   133.0212 </r>
       <r>    12.4937     4.5065   133.6207 </r>
       <r>    12.6268     3.8150   134.1283 </r>
       <r>    12.7598     4.9426   134.7859 </r>
       <r>    12.8929     3.1845   135.2096 </r>
       <r>    13.0259     5.1184   135.8906 </r>
       <r>    13.1590     7.9138   136.9435 </r>
       <r>    13.2920     5.8038   137.7157 </r>
       <r>    13.4251     3.5932   138.1937 </r>
       <r>    13.5581     3.5956   138.6721 </r>
       <r>    13.6911     3.5915   139.1499 </r>
       <r>    13.8242     3.7938   139.6547 </r>
       <r>    13.9572     3.5488   140.1268 </r>
       <r>    14.0903     5.0704   140.8015 </r>
       <r>    14.2233     6.1562   141.6205 </r>
       <r>    14.3564     6.3680   142.4678 </r>
       <r>    14.4894     4.0346   143.0046 </r>
       <r>    14.6225     4.5537   143.6104 </r>
       <r>    14.7555     4.8112   144.2505 </r>
       <r>    14.8886     5.7465   145.0151 </r>
       <r>    15.0216     4.8617   145.6619 </r>
       <r>    15.1547     5.0314   146.3313 </r>
       <r>    15.2877     4.6072   146.9443 </r>
       <r>    15.4208     4.4024   147.5300 </r>
       <r>    15.5538     4.2521   148.0958 </r>
       <r>    15.6868     3.4818   148.5590 </r>
       <r>    15.8199     3.4027   149.0117 </r>
       <r>    15.9529     4.2543   149.5777 </r>
       <r>    16.0860     4.6163   150.1919 </r>
       <r>    16.2190     4.4000   150.7773 </r>
       <r>    16.3521     5.8796   151.5596 </r>
       <r>    16.4851     4.6166   152.1738 </r>
       <r>    16.6182     5.0943   152.8516 </r>
       <r>    16.7512     4.4943   153.4496 </r>
       <r>    16.8843     5.0176   154.1171 </r>
       <r>    17.0173     4.2100   154.6773 </r>
       <r>    17.1504     5.3731   155.3921 </r>
       <r>    17.2834     4.7085   156.0186 </r>
       <r>    17.4165     4.9592   156.6784 </r>
       <r>    17.5495     4.1272   157.2275 </r>
       <r>    17.6825     4.9169   157.8817 </r>
       <r>    17.8156     5.3724   158.5965 </r>
       <r>    17.9486     4.9186   159.2509 </r>
       <r>    18.0817     4.9903   159.9148 </r>
       <r>    18.2147     4.9102   160.5681 </r>
       <r>    18.3478     5.4629   161.2949 </r>
       <r>    18.4808     5.9621   162.0881 </r>
       <r>    18.6139     5.1752   162.7767 </r>
       <r>    18.7469     4.8233   163.4184 </r>
       <r>    18.8800     5.0813   164.0945 </r>
       <r>    19.0130     5.9229   164.8825 </r>
       <r>    19.1461     5.8807   165.6649 </r>
       <r>    19.2791     5.6991   166.4231 </r>
       <r>    19.4122     4.6322   167.0394 </r>
       <r>    19.5452     6.2379   167.8694 </r>
       <r>    19.6782     5.7271   168.6313 </r>
       <r>    19.8113     4.0365   169.1684 </r>
       <r>    19.9443     4.5627   169.7754 </r>
       <r>    20.0774     5.0196   170.4433 </r>
       <r>    20.2104     4.4035   171.0291 </r>
       <r>    20.3435     3.2695   171.4641 </r>
       <r>    20.4765     5.8311   172.2399 </r>
       <r>    20.6096     4.8996   172.8918 </r>
       <r>    20.7426     4.1029   173.4377 </r>
       <r>    20.8757     4.3244   174.0130 </r>
       <r>    21.0087     4.8580   174.6594 </r>
       <r>    21.1418     3.9674   175.1872 </r>
       <r>    21.2748     4.9255   175.8425 </r>
       <r>    21.4079     5.8878   176.6259 </r>
       <r>    21.5409     6.0813   177.4350 </r>
       <r>    21.6739     4.7575   178.0680 </r>
       <r>    21.8070     5.1339   178.7510 </r>
       <r>    21.9400     6.2674   179.5849 </r>
       <r>    22.0731     4.0230   180.1201 </r>
       <r>    22.2061     6.5492   180.9915 </r>
       <r>    22.3392     5.7224   181.7528 </r>
       <r>    22.4722     6.0736   182.5609 </r>
       <r>    22.6053     6.8928   183.4779 </r>
       <r>    22.7383     4.9185   184.1323 </r>
       <r>    22.8714     5.7192   184.8933 </r>
       <r>    23.0044     6.0390   185.6967 </r>
       <r>    23.1375     5.6021   186.4421 </r>
       <r>    23.2705     5.0932   187.1197 </r>
       <r>    23.4036     5.9477   187.9110 </r>
       <r>    23.5366     4.1548   188.4638 </r>
       <r>    23.6696     3.4705   188.9256 </r>
       <r>    23.8027     4.3443   189.5035 </r>
       <r>    23.9357     2.4922   189.8351 </r>
       <r>    24.0688     1.8209   190.0774 </r>
       <r>    24.2018     2.4119   190.3983 </r>
       <r>    24.3349     3.0859   190.8089 </r>
       <r>    24.4679     1.6790   191.0322 </r>
       <r>    24.6010     1.6404   191.2505 </r>
       <r>    24.7340     1.3236   191.4266 </r>
       <r>    24.8671     1.3754   191.6096 </r>
       <r>    25.0001     0.9947   191.7419 </r>
       <r>    25.1332     0.7805   191.8457 </r>
       <r>    25.2662     0.4574   191.9066 </r>
       <r>    25.3993     0.1815   191.9307 </r>
       <r>    25.5323     0.2108   191.9588 </r>
       <r>    25.6653     0.1918   191.9843 </r>
       <r>    25.7984     0.0106   191.9857 </r>
       <r>    25.9314     0.1064   191.9999 </r>
       <r>    26.0645     0.0010   192.0000 </r>
       <r>    26.1975     0.0000   192.0000 </r>
       <r>    26.3306     0.0000   192.0000 </r>
       <r>    26.4636     0.0000   192.0000 </r>
       <r>    26.5967     0.0000   192.0000 </r>
       <r>    26.7297     0.0000   192.0000 </r>
       <r>    26.8628     0.0000   192.0000 </r>
       <r>    26.9958     0.0000   192.0000 </r>
       <r>    27.1289     0.0000   192.0000 </r>
       <r>    27.2619     0.0000   192.0000 </r>
       <r>    27.3950     0.0000   192.0000 </r>
       <r>    27.5280     0.0000   192.0000 </r>
       <r>    27.6610     0.0000   192.0000 </r>
      </set>
     </set>
    </array>
   </total>
  </dos>
 </calculation>
 <structure name="finalpos" >
  <crystal>
   <varray name="basis" >
    <v>       4.56689000       0.00000000       0.00000000 </v>
    <v>       0.00000000       7.75330000       0.00000000 </v>
    <v>       0.00000000       0.00000000       4.59978000 </v>
   </varray>
   <i name="volume">    162.87116403 </i>
   <varray name="rec_basis" >
    <v>       0.21896739      -0.00000000       0.00000000 </v>
    <v>       0.00000000       0.12897734       0.00000000 </v>
    <v>      -0.00000000      -0.00000000       0.21740170 </v>
   </varray>
  </crystal>
  <varray name="positions" >
   <v>       0.00000000       0.15642000       0.08120000 </v>
   <v>       0.00000000       0.84358000       0.91880000 </v>
   <v>       0.00000000       0.34358000       0.58120000 </v>
   <v>       0.00000000       0.65642000       0.41880000 </v>
   <v>       0.50000000       0.65642000       0.08120000 </v>
   <v>       0.50000000       0.34358000       0.91880000 </v>
   <v>       0.50000000       0.84358000       0.58120000 </v>
   <v>       0.50000000       0.15642000       0.41880000 </v>
  </varray>
 </structure>
</modeling>
