Tl                                      
   1.00000000000000     
     3.592550    0.000000    0.000000
     1.796275    3.111240    0.000000
     0.000000    0.000000    5.641950
   Tl
     2
Direct
  0.000000  0.000000  0.000000
  0.333333  0.333333  0.500000
 
   32   32   48
  476.54      459.17      412.51      349.10      281.08      215.61      156.05      105.26      66.442      40.934    
  26.301      17.474      11.988      8.7776      6.9522      5.9969      5.6957      5.9973      6.9523      8.7773    
  11.988      17.474      26.301      40.934      66.442      105.26      156.05      215.61      281.08      349.10    
  412.51      459.17      459.17      427.22      372.62      307.87      242.35      180.87      126.42      82.256    
  50.964      31.996      21.103      14.211      10.077      7.6892      6.3617      5.7551      5.7553      6.3619    
  7.6891      10.076      14.211      21.103      31.995      50.964      82.258      126.42      180.88      242.35    
  307.87      372.62      427.22      459.17      412.51      372.62      317.53      257.03      197.47      142.62    
  95.938      60.695      37.872      24.728      16.556      11.483      8.4979      6.7850      5.8804      5.5932    
  5.8802      6.7849      8.4981      11.484      16.556      24.727      37.870      60.694      95.941      142.62    
  197.47      257.03      317.52      372.62      412.50      427.22      349.10      307.87      257.03      203.32    
  151.40      105.21      68.433      43.127      27.988      18.794      12.892      9.3306      7.2395      6.0551    
  5.5065      5.5065      6.0551      7.2395      9.3308      12.893      18.795      27.987      43.126      68.431    
  105.20      151.40      203.32      257.03      307.87      349.10      372.63      372.63      281.08      242.35    
  197.47      151.40      108.48      72.718      46.793      30.528      20.653      14.155      10.116      7.6889    
  6.2565      5.4819      5.2330      5.4822      6.2566      7.6886      10.116      14.156      20.655      30.529    
  46.792      72.714      108.48      151.40      197.47      242.35      281.09      307.90      317.56      307.90    
  215.61      180.87      142.62      105.21      72.718      48.109      31.935      21.883      15.114      10.769    
  8.0881      6.4566      5.5008      5.0481      5.0481      5.5009      6.4565      8.0876      10.769      15.114    
  21.886      31.938      48.111      72.716      105.20      142.61      180.87      215.61      242.39      257.09    
  257.09      242.39      156.05      126.42      95.938      68.433      46.793      31.935      22.314      15.633    
  11.205      8.3903      6.6260      5.5400      4.9348      4.7373      4.9346      5.5401      6.6263      8.3897    
  11.203      15.631      22.314      31.938      46.796      68.435      95.938      126.41      156.04      180.92    
  197.55      203.41      197.55      180.92      105.26      82.256      60.695      43.127      30.528      21.883    
  15.633      11.358      8.5542      6.7399      5.5784      4.8720      4.5310      4.5309      4.8720      5.5790    
  6.7408      8.5541      11.356      15.629      21.881      30.528      43.130      60.698      82.256      105.26    
  126.46      142.70      151.51      151.51      142.71      126.47      66.442      50.964      37.872      27.988    
  20.653      15.114      11.205      8.5542      6.7802      5.6014      4.8418      4.4085      4.2663      4.4083    
  4.8418      5.6021      6.7820      8.5561      11.205      15.112      20.649      27.985      37.872      50.965    
  66.442      82.292      96.013      105.31      108.59      105.31      96.016      82.294      40.934      31.996    
  24.728      18.794      14.155      10.769      8.3903      6.7399      5.6014      4.8330      4.3522      4.1189    
  4.1189      4.3518      4.8321      5.6013      6.7419      8.3939      10.772      14.155      18.792      24.724    
  31.994      40.934      50.984      60.746      68.512      72.811      72.809      68.508      60.742      50.982    
  26.301      21.103      16.556      12.892      10.116      8.0881      6.6260      5.5784      4.8418      4.3522    
  4.0720      3.9810      4.0721      4.3514      4.8398      5.5765      6.6262      8.0910      10.121      12.895    
  16.557      21.101      26.298      31.992      37.884      43.162      46.844      48.166      46.841      43.157    
  37.882      31.993      17.474      14.211      11.483      9.3306      7.6889      6.4566      5.5400      4.8720    
  4.4085      4.1189      3.9810      3.9815      4.1198      4.4083      4.8699      5.5364      6.4536      7.6889    
  9.3338      11.488      14.214      17.474      21.082      24.699      27.965      30.517      31.932      31.933    
  30.518      27.967      24.702      21.084      11.988      10.077      8.4979      7.2395      6.2565      5.5008    
  4.9348      4.5310      4.2663      4.1189      4.0721      4.1198      4.2681      4.5328      4.9346      5.4977    
  6.2521      7.2365      8.4981      10.080      11.992      14.182      16.504      18.727      20.581      21.813    
  22.247      21.818      20.587      18.730      16.503      14.179      8.7776      7.6892      6.7850      6.0551    
  5.4819      5.0481      4.7373      4.5309      4.4083      4.3518      4.3514      4.4083      4.5328      4.7409    
  5.0509      5.4817      6.0518      6.7805      7.6860      8.7775      10.040      11.416      12.800      14.045    
  14.992      15.507      15.508      14.995      14.045      12.797      11.411      10.037      6.9522      6.3617    
  5.8804      5.5065      5.2330      5.0481      4.9346      4.8720      4.8418      4.8321      4.8398      4.8699    
  4.9346      5.0509      5.2370      5.5092      5.8800      6.3584      6.9479      7.6416      8.4145      9.2180    
  9.9805      10.616      11.039      11.187      11.037      10.612      9.9764      9.2150      8.4142      7.6443    
  5.9969      5.7551      5.5932      5.5065      5.4822      5.5009      5.5401      5.5790      5.6021      5.6013    
  5.5765      5.5364      5.4977      5.4817      5.5092      5.5973      5.7579      5.9966      6.3114      6.6902    
  7.1085      7.5302      7.9095      8.1974      8.3521      8.3501      8.1930      7.9061      7.5302      7.1118    
  6.6947      6.3148      5.6957      5.7553      5.8802      6.0551      6.2566      6.4565      6.6263      6.7408    
  6.7820      6.7419      6.6262      6.4536      6.2521      6.0518      5.8800      5.7579      5.6993      5.7098    
  5.7863      5.9170      6.0825      6.2565      6.4093      6.5131      6.5492      6.5120      6.4092      6.2592    
  6.0869      5.9205      5.7868      5.7075      5.9973      6.3619      6.7849      7.2395      7.6886      8.0876    
  8.3897      8.5541      8.5561      8.3939      8.0910      7.6889      7.2365      6.7805      6.3584      5.9966    
  5.7098      5.5026      5.3715      5.3064      5.2916      5.3068      5.3311      5.3480      5.3489      5.3337    
  5.3106      5.2947      5.3067      5.3685      5.4985      5.7073      6.9523      7.6891      8.4981      9.3308    
  10.116      10.769      11.203      11.356      11.205      10.772      10.121      9.3338      8.4981      7.6860    
  6.9479      6.3114      5.7863      5.3715      5.0600      4.8407      4.6982      4.6145      4.5730      4.5615    
  4.5750      4.6167      4.6983      4.8381      5.0561      5.3686      5.7864      6.3146      8.7773      10.076    
  11.484      12.893      14.156      15.114      15.631      15.629      15.112      14.155      12.895      11.488    
  10.080      8.7775      7.6416      6.6902      5.9170      5.3064      4.8407      4.5023      4.2728      4.1340    
  4.0699      4.0702      4.1339      4.2708      4.4987      4.8381      5.3069      5.9205      6.6946      7.6445    
  11.988      14.211      16.556      18.795      20.655      21.886      22.314      21.881      20.649      18.792    
  16.557      14.214      11.992      10.040      8.4145      7.1085      6.0825      5.2916      4.6982      4.2728    
  3.9913      3.8330      3.7820      3.8321      3.9895      4.2709      4.6983      5.2946      6.0870      7.1118    
  8.4146      10.037      17.474      21.103      24.727      27.987      30.529      31.938      31.938      30.528    
  27.985      24.724      21.101      17.474      14.182      11.416      9.2180      7.5302      6.2565      5.3068    
  4.6145      4.1340      3.8330      3.6885      3.6880      3.8321      4.1342      4.6167      5.3104      6.2592    
  7.5301      9.2147      11.412      14.179      26.301      31.995      37.870      43.126      46.792      48.111    
  46.796      43.130      37.872      31.994      26.298      21.082      16.504      12.800      9.9805      7.9095    
  6.4093      5.3311      4.5730      4.0699      3.7820      3.6880      3.7819      4.0707      4.5751      5.3331    
  6.4092      7.9067      9.9762      12.796      16.503      21.084      40.934      50.964      60.694      68.431    
  72.714      72.716      68.435      60.698      50.965      40.934      31.992      24.699      18.727      14.045    
  10.616      8.1974      6.5131      5.3480      4.5615      4.0702      3.8321      3.8321      4.0707      4.5623    
  5.3481      6.5111      8.1939      10.613      14.045      18.730      24.703      31.994      66.442      82.258    
  95.941      105.20      108.48      105.20      95.938      82.256      66.442      50.984      37.884      27.965    
  20.581      14.992      11.039      8.3521      6.5492      5.3489      4.5750      4.1339      3.9895      4.1342    
  4.5751      5.3481      6.5473      8.3502      11.039      14.995      20.585      27.967      37.883      50.983    
  105.26      126.42      142.62      151.40      151.40      142.61      126.41      105.26      82.292      60.746    
  43.162      30.517      21.813      15.507      11.187      8.3501      6.5120      5.3337      4.6167      4.2708    
  4.2709      4.6167      5.3331      6.5111      8.3502      11.189      15.510      21.816      30.516      43.159    
  60.743      82.292      156.05      180.88      197.47      203.32      197.47      180.87      156.04      126.46    
  96.013      68.512      46.844      31.932      22.247      15.508      11.037      8.1930      6.4092      5.3106    
  4.6983      4.4987      4.6983      5.3104      6.4092      8.1939      11.039      15.510      22.247      31.930    
  46.841      68.510      96.013      126.46      215.61      242.35      257.03      257.03      242.35      215.61    
  180.92      142.70      105.31      72.811      48.166      31.933      21.818      14.995      10.612      7.9061    
  6.2592      5.2947      4.8381      4.8381      5.2946      6.2592      7.9067      10.613      14.995      21.816    
  31.930      48.165      72.813      105.31      142.70      180.92      281.08      307.87      317.52      307.87    
  281.09      242.39      197.55      151.51      108.59      72.809      46.841      30.518      20.587      14.045    
  9.9764      7.5302      6.0869      5.3067      5.0561      5.3069      6.0870      7.5301      9.9762      14.045    
  20.585      30.516      46.841      72.813      108.60      151.51      197.55      242.38      349.10      372.62    
  372.62      349.10      307.90      257.09      203.41      151.51      105.31      68.508      43.157      27.967    
  18.730      12.797      9.2150      7.1118      5.9205      5.3685      5.3686      5.9205      7.1118      9.2147    
  12.796      18.730      27.967      43.159      68.510      105.31      151.51      203.41      257.09      307.90    
  412.51      427.22      412.50      372.63      317.56      257.09      197.55      142.71      96.016      60.742    
  37.882      24.702      16.503      11.411      8.4142      6.6947      5.7868      5.4985      5.7864      6.6946    
  8.4146      11.412      16.503      24.703      37.883      60.743      96.013      142.70      197.55      257.09    
  317.56      372.64      459.17      459.17      427.22      372.63      307.90      242.39      180.92      126.47    
  82.294      50.982      31.993      21.084      14.179      10.037      7.6443      6.3148      5.7075      5.7073    
  6.3146      7.6445      10.037      14.179      21.084      31.994      50.983      82.292      126.46      180.92    
  242.38      307.90      372.64      427.23      457.54      441.21      397.22      337.09      272.01      208.81    
  151.03      101.77      64.281      39.777      25.707      17.122      11.787      8.6588      6.8742      5.9372    
  5.6412      5.9376      6.8743      8.6585      11.787      17.122      25.707      39.777      64.281      101.77    
  151.03      208.82      272.01      337.09      397.22      441.21      441.21      411.12      359.45      297.71    
  234.68      175.13      122.27      79.529      49.402      31.201      20.653      13.951      9.9274      7.5975    
  6.2974      5.7017      5.7019      6.2976      7.5973      9.9272      13.951      20.653      31.200      49.401    
  79.531      122.28      175.14      234.68      297.71      359.44      411.11      441.21      397.22      359.45    
  306.95      248.85      191.24      137.99      92.752      58.753      36.842      24.183      16.233      11.299    
  8.3897      6.7147      5.8273      5.5451      5.8271      6.7146      8.3899      11.300      16.233      24.182    
  36.841      58.752      92.754      138.00      191.24      248.85      306.95      359.44      397.22      411.12    
  337.09      297.71      248.85      196.91      146.52      101.72      66.202      41.884      27.342      18.411    
  12.672      9.2043      7.1621      6.0017      5.4629      5.4629      6.0016      7.1620      9.2045      12.673    
  18.411      27.342      41.882      66.200      101.72      146.52      196.91      248.85      297.72      337.09    
  359.46      359.46      272.01      234.68      191.24      146.52      104.89      70.331      45.401      29.792    
  20.220      13.902      9.9722      7.6039      6.2019      5.4420      5.1975      5.4422      6.2020      7.6035    
  9.9721      13.903      20.221      29.793      45.400      70.327      104.89      146.52      191.24      234.68    
  272.02      297.74      306.98      297.74      208.81      175.13      137.99      101.72      70.331      46.664    
  31.146      21.418      14.835      10.610      7.9959      6.4005      5.4636      5.0192      5.0192      5.4637    
  6.4005      7.9954      10.609      14.836      21.420      31.149      46.666      70.329      101.72      137.99    
  175.13      208.82      234.72      248.91      248.91      234.72      151.03      122.27      92.752      66.202    
  45.401      31.146      21.837      15.340      11.035      8.2924      6.5685      5.5047      4.9109      4.7170    
  4.9107      5.5047      6.5688      8.2918      11.033      15.338      21.837      31.148      45.404      66.204    
  92.752      122.27      151.03      175.17      191.31      196.99      191.31      175.18      101.77      79.529    
  58.753      41.884      29.792      21.418      15.340      11.184      8.4532      6.6813      5.5442      4.8516    
  4.5171      4.5169      4.8515      5.5447      6.6822      8.4531      11.182      15.337      21.415      29.792    
  41.887      58.757      79.530      101.77      122.31      138.07      146.62      146.62      138.08      122.32    
  64.281      49.402      36.842      27.342      20.220      14.835      11.035      8.4532      6.7212      5.5677    
  4.8233      4.3986      4.2592      4.3985      4.8233      5.5684      6.7229      8.4550      11.035      14.833    
  20.216      27.340      36.843      49.403      64.281      79.561      92.819      101.81      104.99      101.81    
  92.822      79.563      39.777      31.201      24.183      18.411      13.902      10.610      8.2924      6.6813    
  5.5677      4.8152      4.3443      4.1159      4.1158      4.3439      4.8144      5.5676      6.6833      8.2960    
  10.613      13.902      18.408      24.180      31.198      39.776      49.417      58.797      66.271      70.412    
  70.410      66.266      58.793      49.415      25.707      20.653      16.233      12.672      9.9722      7.9959    
  6.5685      5.5442      4.8233      4.3443      4.0703      3.9813      4.0704      4.3435      4.8214      5.5423    
  6.5687      7.9987      9.9763      12.675      16.233      20.651      25.704      31.193      36.847      41.908    
  45.440      46.707      45.436      41.903      36.845      31.194      17.122      13.951      11.299      9.2043    
  7.6039      6.4005      5.5047      4.8516      4.3986      4.1159      3.9813      3.9817      4.1167      4.3985    
  4.8495      5.5012      6.3976      7.6038      9.2075      11.304      13.954      17.122      20.628      24.148    
  27.310      29.768      31.129      31.130      29.769      27.312      24.151      20.630      11.787      9.9274    
  8.3897      7.1621      6.2019      5.4636      4.9109      4.5171      4.2592      4.1158      4.0704      4.1167    
  4.2609      4.5188      4.9107      5.4606      6.1975      7.1591      8.3899      9.9304      11.791      13.919    
  16.175      18.335      20.137      21.335      21.756      21.339      20.142      18.338      16.174      13.916    
  8.6588      7.5975      6.7147      6.0017      5.4420      5.0192      4.7170      4.5169      4.3985      4.3439    
  4.3435      4.3984      4.5188      4.7205      5.0219      5.4417      5.9983      6.7101      7.5942      8.6587    
  9.8880      11.226      12.571      13.780      14.700      15.200      15.201      14.703      13.781      12.568    
  11.222      9.8848      6.8742      6.2974      5.8273      5.4629      5.1975      5.0192      4.9107      4.8515    
  4.8233      4.8144      4.8214      4.8495      4.9107      5.0219      5.2015      5.4656      5.8270      6.2940    
  6.8698      7.5469      8.3004      9.0828      9.8245      10.442      10.853      10.997      10.852      10.439    
  9.8205      9.0798      8.3001      7.5497      5.9372      5.7017      5.5451      5.4629      5.4422      5.4637    
  5.5047      5.5447      5.5684      5.5676      5.5423      5.5012      5.4606      5.4417      5.4656      5.5493    
  5.7046      5.9369      6.2441      6.6137      7.0217      7.4326      7.8019      8.0821      8.2326      8.2307    
  8.0778      7.7986      7.4326      7.0250      6.6183      6.2475      5.6412      5.7019      5.8271      6.0016    
  6.2020      6.4005      6.5687      6.6822      6.7229      6.6833      6.5687      6.3976      6.1975      5.9983    
  5.8270      5.7046      5.6449      5.6534      5.7269      5.8538      6.0146      6.1839      6.3326      6.4336    
  6.4687      6.4325      6.3325      6.1865      6.0190      5.8572      5.7274      5.6510      5.9376      6.2976    
  6.7146      7.1620      7.6035      7.9954      8.2918      8.4531      8.4550      8.2960      7.9987      7.6038    
  7.1591      6.7101      6.2940      5.9369      5.6534      5.4482      5.3178      5.2526      5.2369      5.2508    
  5.2740      5.2902      5.2910      5.2765      5.2545      5.2399      5.2528      5.3149      5.4440      5.6508    
  6.8743      7.5973      8.3899      9.2045      9.9721      10.609      11.033      11.182      11.035      10.613    
  9.9763      9.2075      8.3899      7.5942      6.8698      6.2441      5.7269      5.3178      5.0103      4.7936    
  4.6526      4.5697      4.5284      4.5170      4.5304      4.5717      4.6527      4.7910      5.0064      5.3149    
  5.7270      6.2473      8.6585      9.9272      11.300      12.673      13.903      14.835      15.338      15.337    
  14.833      13.902      12.675      11.304      9.9304      8.6587      7.5469      6.6137      5.8538      5.2526    
  4.7936      4.4599      4.2335      4.0966      4.0334      4.0337      4.0965      4.2316      4.4564      4.7910    
  5.2530      5.8573      6.6182      7.5499      11.787      13.951      16.233      18.411      20.221      21.420    
  21.837      21.415      20.216      18.408      16.233      13.954      11.791      9.8880      8.3004      7.0217    
  6.0146      5.2369      4.6526      4.2335      3.9562      3.8002      3.7501      3.7994      3.9544      4.2317    
  4.6526      5.2398      6.0191      7.0250      8.3005      9.8850      17.122      20.653      24.182      27.342    
  29.793      31.149      31.148      29.792      27.340      24.180      20.651      17.122      13.919      11.226    
  9.0828      7.4326      6.1839      5.2508      4.5697      4.0966      3.8002      3.6581      3.6576      3.7995    
  4.0968      4.5718      5.2543      6.1866      7.4325      9.0796      11.222      13.916      25.707      31.200    
  36.841      41.882      45.400      46.666      45.404      41.887      36.843      31.198      25.704      20.628    
  16.175      12.571      9.8245      7.8019      6.3326      5.2740      4.5284      4.0334      3.7501      3.6576    
  3.7499      4.0341      4.5304      5.2759      6.3325      7.7991      9.8203      12.568      16.174      20.631    
  39.777      49.401      58.752      66.200      70.327      70.329      66.204      58.757      49.403      39.776    
  31.193      24.148      18.335      13.780      10.442      8.0821      6.4336      5.2902      4.5170      4.0337    
  3.7994      3.7995      4.0341      4.5178      5.2902      6.4317      8.0787      10.439      13.780      18.337    
  24.152      31.195      64.281      79.531      92.754      101.72      104.89      101.72      92.752      79.530    
  64.281      49.417      36.847      27.310      20.137      14.700      10.853      8.2326      6.4687      5.2910    
  4.5304      4.0965      3.9544      4.0968      4.5304      5.2902      6.4669      8.2307      10.853      14.703    
  20.140      27.312      36.847      49.416      101.77      122.28      138.00      146.52      146.52      137.99    
  122.27      101.77      79.561      58.797      41.908      29.768      21.335      15.200      10.997      8.2307    
  6.4325      5.2765      4.5717      4.2316      4.2317      4.5718      5.2759      6.4317      8.2307      10.999    
  15.203      21.337      29.768      41.905      58.794      79.561      151.03      175.14      191.24      196.91    
  191.24      175.13      151.03      122.31      92.819      66.271      45.440      31.129      21.756      15.201    
  10.852      8.0778      6.3325      5.2545      4.6527      4.4564      4.6526      5.2543      6.3325      8.0787    
  10.853      15.203      21.756      31.127      45.436      66.269      92.820      122.32      208.82      234.68    
  248.85      248.85      234.68      208.82      175.17      138.07      101.81      70.412      46.707      31.130    
  21.339      14.703      10.439      7.7986      6.1865      5.2399      4.7910      4.7910      5.2398      6.1866    
  7.7991      10.439      14.703      21.337      31.127      46.706      70.414      101.82      138.07      175.17    
  272.01      297.71      306.95      297.72      272.02      234.72      191.31      146.62      104.99      70.410    
  45.436      29.769      20.142      13.781      9.8205      7.4326      6.0190      5.2528      5.0064      5.2530    
  6.0191      7.4325      9.8203      13.780      20.140      29.768      45.436      70.414      105.00      146.62    
  191.31      234.71      337.09      359.44      359.44      337.09      297.74      248.91      196.99      146.62    
  101.81      66.266      41.903      27.312      18.338      12.568      9.0798      7.0250      5.8572      5.3149    
  5.3149      5.8573      7.0250      9.0796      12.568      18.337      27.312      41.905      66.269      101.82    
  146.62      196.99      248.91      297.74      397.22      411.11      397.22      359.46      306.98      248.91    
  191.31      138.08      92.822      58.793      36.845      24.151      16.174      11.222      8.3001      6.6183    
  5.7274      5.4440      5.7270      6.6182      8.3005      11.222      16.174      24.152      36.847      58.794    
  92.820      138.07      191.31      248.91      306.99      359.47      441.21      441.21      411.12      359.46    
  297.74      234.72      175.18      122.32      79.563      49.415      31.194      20.630      13.916      9.8848    
  7.5497      6.2475      5.6510      5.6508      6.2473      7.5499      9.8850      13.916      20.631      31.195    
  49.416      79.561      122.32      175.17      234.71      297.74      359.47      411.12      406.97      393.28    
  356.06      304.23      246.76      189.66      136.84      91.963      58.273      36.581      24.028      16.123    
  11.216      8.3194      6.6501      5.7653      5.4841      5.7656      6.6502      8.3191      11.216      16.123    
  24.029      36.581      58.273      91.963      136.84      189.66      246.76      304.23      356.06      393.28    
  393.28      367.88      323.65      269.64      213.16      158.89      110.59      71.909      45.080      28.991    
  19.376      13.214      9.5028      7.3343      6.1118      5.5473      5.5474      6.1120      7.3341      9.5026    
  13.214      19.375      28.990      45.080      71.911      110.59      158.90      213.16      269.64      323.64    
  367.87      393.28      356.06      323.65      277.81      225.96      173.62      124.93      83.813      53.367    
  34.000      22.636      15.317      10.777      8.0794      6.5110      5.6725      5.4045      5.6723      6.5108    
  8.0796      10.777      15.317      22.635      33.998      53.366      83.815      124.93      173.62      225.96    
  277.80      323.64      356.05      367.87      304.23      269.64      225.96      178.80      132.72      91.923    
  59.996      38.452      25.533      17.323      12.047      8.8420      6.9366      5.8435      5.3327      5.3327    
  5.8435      6.9365      8.8421      12.047      17.323      25.533      38.451      59.994      91.921      132.72    
  178.80      225.96      269.64      304.24      323.65      323.65      246.76      213.16      173.62      132.72    
  94.798      63.683      41.557      27.743      18.990      13.183      9.5583      7.3550      6.0381      5.3190    
  5.0868      5.3192      6.0382      7.3547      9.5581      13.183      18.991      27.744      41.556      63.679    
  94.792      132.72      173.62      213.16      246.77      269.67      277.83      269.66      189.66      158.89    
  124.93      91.923      63.683      42.673      28.954      20.095      14.043      10.151      7.7249      6.2298    
  5.3449      4.9233      4.9233      5.3449      6.2297      7.7245      10.151      14.043      20.097      28.957    
  42.674      63.681      91.919      124.92      158.89      189.66      213.19      226.01      226.01      213.19    
  136.84      110.59      83.813      59.996      41.557      28.954      20.482      14.508      10.546      8.0041    
  6.3913      5.3880      4.8255      4.6415      4.8253      5.3881      6.3915      8.0036      10.544      14.507    
  20.482      28.957      41.560      59.998      83.813      110.58      136.83      158.93      173.68      178.87    
  173.68      158.93      91.963      71.909      53.367      38.452      27.743      20.095      14.508      10.685    
  8.1552      6.4995      5.4284      4.7729      4.4559      4.4557      4.7728      5.4289      6.5003      8.1552    
  10.683      14.505      20.093      27.743      38.455      53.371      71.911      91.959      110.61      124.98    
  132.79      132.80      124.99      110.62      58.273      45.080      34.000      25.533      18.990      14.043    
  10.546      8.1552      6.5378      5.4522      4.7484      4.3462      4.2143      4.3462      4.7484      5.4528    
  6.5392      8.1568      10.546      14.041      18.986      25.531      34.000      45.082      58.274      71.930    
  83.859      91.986      94.867      91.988      83.861      71.931      36.581      28.991      22.636      17.323    
  13.183      10.151      8.0041      6.4995      5.4522      4.7414      4.2961      4.0803      4.0803      4.2958    
  4.7407      5.4521      6.5013      8.0074      10.154      13.183      17.320      22.632      28.989      36.580    
  45.085      53.388      60.034      63.728      63.726      60.030      53.384      45.082      24.028      19.376    
  15.317      12.047      9.5583      7.7249      6.3913      5.4284      4.7484      4.2961      4.0377      3.9538    
  4.0378      4.2955      4.7467      5.4268      6.3914      7.7276      9.5622      12.050      15.317      19.373    
  24.025      28.973      33.983      38.445      41.559      42.677      41.555      38.441      33.981      28.974    
  16.123      13.214      10.777      8.8420      7.3550      6.2298      5.3880      4.7729      4.3462      4.0803    
  3.9538      3.9542      4.0810      4.3461      4.7711      5.3848      6.2270      7.3549      8.8452      10.781    
  13.217      16.123      19.342      22.581      25.473      27.684      28.898      28.899      27.685      25.475    
  22.584      19.344      11.216      9.5028      8.0794      6.9366      6.0381      5.3449      4.8255      4.4559    
  4.2143      4.0803      4.0378      4.0810      4.2158      4.4574      4.8254      5.3420      6.0338      6.9336    