Tl                                      
   1.00000000000000     
     3.592550    0.000000    0.000000
     1.796275    3.111240    0.000000
     0.000000    0.000000    5.641950
   Tl
     2
Direct
  0.000000  0.000000  0.000000
  0.333333  0.333333  0.500000
 
   32   32   48
 0.47653871690E+03 0.45917107693E+03 0.41250517801E+03 0.34910188856E+03 0.28108138661E+03
 0.21560841046E+03 0.15604832918E+03 0.10526470799E+03 0.66441911408E+02 0.40934332597E+02
 0.26301175672E+02 0.17473925056E+02 0.11988409787E+02 0.87776225418E+01 0.69521806464E+01
 0.59969394018E+01 0.56957123867E+01 0.59972933067E+01 0.69523167372E+01 0.87773151918E+01
 0.11988142401E+02 0.17474113619E+02 0.26301496666E+02 0.40934239368E+02 0.66441525419E+02
 0.10526466294E+03 0.15604879596E+03 0.21560881802E+03 0.28108125506E+03 0.34910147561E+03
 0.41250500084E+03 0.45917115442E+03 0.45917107733E+03 0.42722426079E+03 0.37262426847E+03
 0.30787156337E+03 0.24234543367E+03 0.18087189030E+03 0.12641673405E+03 0.82255761870E+02
 0.50964364258E+02 0.31996193073E+02 0.21103001497E+02 0.14210597221E+02 0.10076525784E+02
 0.76892105334E+01 0.63616909536E+01 0.57550862918E+01 0.57552549314E+01 0.63618839458E+01
 0.76890725410E+01 0.10076299585E+02 0.14210532953E+02 0.21102595663E+02 0.31995025573E+02
 0.50963639274E+02 0.82257786266E+02 0.12642209235E+03 0.18087775712E+03 0.24234764059E+03
 0.30786838568E+03 0.37261779463E+03 0.42721837115E+03 0.45916877276E+03 0.41250517892E+03
 0.37262426894E+03 0.31752577493E+03 0.25702977368E+03 0.19747047826E+03 0.14261762124E+03
 0.95938374989E+02 0.60694551048E+02 0.37871760195E+02 0.24727912227E+02 0.16556415399E+02
 0.11483283471E+02 0.84978972738E+01 0.67850439088E+01 0.58803784708E+01 0.55931729765E+01
 0.58801620485E+01 0.67848850130E+01 0.84980907589E+01 0.11483695207E+02 0.16556328928E+02
 0.24726713535E+02 0.37870008458E+02 0.60694048200E+02 0.95940614032E+02 0.14262198033E+03
 0.19747421829E+03 0.25703013468E+03 0.31752224178E+03 0.37261898644E+03 0.41250140047E+03
 0.42722392203E+03 0.34910188974E+03 0.30787156397E+03 0.25702977375E+03 0.20331820709E+03
 0.15140213371E+03 0.10520580945E+03 0.68433007817E+02 0.43127058084E+02 0.27987565911E+02
 0.18794310673E+02 0.12892092650E+02 0.93305811450E+01 0.72395148623E+01 0.60551297315E+01
 0.55064770071E+01 0.55064590040E+01 0.60550678276E+01 0.72394878028E+01 0.93308190246E+01
 0.12892706278E+02 0.18794928164E+02 0.27987425540E+02 0.43125628981E+02 0.68430543520E+02
 0.10520328010E+03 0.15140064773E+03 0.20331843616E+03 0.25703167741E+03 0.30787438385E+03
 0.34910438977E+03 0.37263393705E+03 0.37263293946E+03 0.28108138735E+03 0.24234543364E+03
 0.19747047764E+03 0.15140213305E+03 0.10848144238E+03 0.72718033740E+02 0.46792939967E+02
 0.30527796269E+02 0.20652841503E+02 0.14155384007E+02 0.10116478133E+02 0.76889391059E+01
 0.62564809972E+01 0.54818633218E+01 0.52330207768E+01 0.54821642695E+01 0.62565724873E+01
 0.76885963331E+01 0.10116305653E+02 0.14156287678E+02 0.20654849813E+02 0.30529482801E+02
 0.46792235067E+02 0.72713953658E+02 0.10847537991E+03 0.15139751911E+03 0.19747070785E+03
 0.24235130957E+03 0.28109000653E+03 0.30790131088E+03 0.31755859175E+03 0.30789503918E+03
 0.21560840976E+03 0.18087188873E+03 0.14261761919E+03 0.10520580758E+03 0.72718032677E+02
 0.48109469326E+02 0.31934983431E+02 0.21883418762E+02 0.15114026739E+02 0.10769431657E+02
 0.80881451694E+01 0.64565959994E+01 0.55008028329E+01 0.50480964465E+01 0.50481325960E+01
 0.55008862472E+01 0.64565098118E+01 0.80875698375E+01 0.10768651024E+02 0.15114230212E+02
 0.21885515388E+02 0.31937969667E+02 0.48110706285E+02 0.72715782391E+02 0.10520134365E+03
 0.14261435858E+03 0.18087235565E+03 0.21561216012E+03 0.24238968697E+03 0.25709171609E+03
 0.25708990611E+03 0.24238544556E+03 0.15604832620E+03 0.12641673041E+03 0.95938371264E+02
 0.68433004701E+02 0.46792937942E+02 0.31934982567E+02 0.22313876312E+02 0.15632520969E+02
 0.11204852798E+02 0.83902819688E+01 0.66260314415E+01 0.55400490522E+01 0.49348295480E+01
 0.47372953395E+01 0.49345683875E+01 0.55401101676E+01 0.66262828926E+01 0.83896556417E+01
 0.11202968032E+02 0.15630800547E+02 0.22314221662E+02 0.31937580749E+02 0.46796047925E+02
 0.68434736329E+02 0.95937941132E+02 0.12641408470E+03 0.15604369995E+03 0.18091773421E+03
 0.19754906773E+03 0.20340898342E+03 0.19755289547E+03 0.18092317568E+03 0.10526470267E+03
 0.82255756418E+02 0.60694546126E+02 0.43127054267E+02 0.30527793803E+02 0.21883417510E+02
 0.15632520550E+02 0.11358156479E+02 0.85542076199E+01 0.67399148919E+01 0.55783901231E+01
 0.48720196166E+01 0.45310345343E+01 0.45308757552E+01 0.48719516379E+01 0.55789852595E+01
 0.67408223590E+01 0.85541404547E+01 0.11356192441E+02 0.15629355062E+02 0.21881151373E+02
 0.30528287342E+02 0.43130216108E+02 0.60697969659E+02 0.82256108693E+02 0.10526005925E+03
 0.12645922198E+03 0.14269930057E+03 0.15150550585E+03 0.15150887490E+03 0.14270745436E+03
 0.12646765275E+03 0.66441904607E+02 0.50964357999E+02 0.37871755049E+02 0.27987562202E+02
 0.20652839211E+02 0.15114025565E+02 0.11204852329E+02 0.85542074981E+01 0.67802076334E+01
 0.56013773084E+01 0.48417615673E+01 0.44084641998E+01 0.42662502139E+01 0.44083444139E+01
 0.48417678600E+01 0.56021002780E+01 0.67819639359E+01 0.85560637318E+01 0.11204950110E+02
 0.15111527598E+02 0.20649254906E+02 0.27985439397E+02 0.37872020611E+02 0.50965480817E+02
 0.66441775031E+02 0.82291810191E+02 0.96013120170E+02 0.10530633951E+03 0.10859123144E+03
 0.10530797790E+03 0.96015624138E+02 0.82293714268E+02 0.40934325714E+02 0.31996187264E+02
 0.24727907828E+02 0.18794307734E+02 0.14155382305E+02 0.10769430822E+02 0.83902816347E+01
 0.67399147894E+01 0.56013772878E+01 0.48329508190E+01 0.43522095703E+01 0.41189160427E+01
 0.41188653438E+01 0.43517765616E+01 0.48321111049E+01 0.56012926545E+01 0.67419254291E+01
 0.83939298955E+01 0.10772340013E+02 0.14155467635E+02 0.18791659390E+02 0.24724322562E+02
 0.31993512042E+02 0.40933713951E+02 0.50983993670E+02 0.60746340700E+02 0.68512349053E+02
 0.72811132895E+02 0.72809190202E+02 0.68507864211E+02 0.60742091369E+02 0.50981973433E+02
 0.26301169978E+02 0.21102997060E+02 0.16556412303E+02 0.12892090742E+02 0.10116477113E+02
 0.80881447068E+01 0.66260312683E+01 0.55783900698E+01 0.48417615511E+01 0.43522095631E+01
 0.40720291408E+01 0.39809734230E+01 0.40721234728E+01 0.43514216942E+01 0.48397625362E+01
 0.55765124746E+01 0.66262185540E+01 0.80910099754E+01 0.10120616617E+02 0.12895179989E+02
 0.16556847514E+02 0.21100865409E+02 0.26298243815E+02 0.31991977390E+02 0.37883558215E+02
 0.43161506679E+02 0.46844304189E+02 0.48165692646E+02 0.46840796157E+02 0.43157225040E+02
 0.37881552574E+02 0.31993194147E+02 0.17473921186E+02 0.14210594440E+02 0.11483281688E+02
 0.93305801423E+01 0.76889386210E+01 0.64565958023E+01 0.55400489842E+01 0.48720195907E+01
 0.44084641801E+01 0.41189160214E+01 0.39809734058E+01 0.39814515108E+01 0.41197571490E+01
 0.44083131272E+01 0.48698820388E+01 0.55364462037E+01 0.64536434017E+01 0.76888720696E+01
 0.93338285443E+01 0.11487950946E+02 0.14213952735E+02 0.17474455574E+02 0.21081720588E+02
 0.24699418348E+02 0.27965065611E+02 0.30516555102E+02 0.31932153026E+02 0.31932555056E+02
 0.30517844203E+02 0.27967284945E+02 0.24702086230E+02 0.21083552714E+02 0.11988407650E+02
 0.10076524374E+02 0.84978964491E+01 0.72395144419E+01 0.62564808126E+01 0.55008027602E+01
 0.49348295131E+01 0.45310345011E+01 0.42662501702E+01 0.41188652909E+01 0.40721234210E+01
 0.41197571143E+01 0.42680586810E+01 0.45327821774E+01 0.49346300881E+01 0.54977459866E+01
 0.62520542542E+01 0.72365337696E+01 0.84981021393E+01 0.10079505391E+02 0.11992423069E+02
 0.14182287074E+02 0.16503781735E+02 0.18727361463E+02 0.20581373992E+02 0.21813433069E+02
 0.22246925057E+02 0.21817557023E+02 0.20586647987E+02 0.18730468102E+02 0.16503408214E+02
 0.14179220696E+02 0.87776216068E+01 0.76892099596E+01 0.67850435906E+01 0.60551295675E+01
 0.54818632348E+01 0.50480963863E+01 0.47372952774E+01 0.45308756769E+01 0.44083443160E+01
 0.43517764508E+01 0.43514215855E+01 0.44083130393E+01 0.45327821274E+01 0.47408591382E+01
 0.50509126445E+01 0.54816518391E+01 0.60517657898E+01 0.67804694188E+01 0.76859747145E+01
 0.87775249261E+01 0.10039835754E+02 0.11415973231E+02 0.12799591646E+02 0.14044686887E+02
 0.14992418101E+02 0.15506805770E+02 0.15508298574E+02 0.14995161964E+02 0.14045374229E+02
 0.12796814805E+02 0.11411467126E+02 0.10036661259E+02 0.69521803158E+01 0.63616907318E+01
 0.58803783141E+01 0.55064768830E+01 0.52330206624E+01 0.50481324737E+01 0.49345682439E+01
 0.48719514666E+01 0.48417676656E+01 0.48321109024E+01 0.48397623467E+01 0.48698818820E+01
 0.49346299780E+01 0.50509125883E+01 0.52370006584E+01 0.55091503745E+01 0.58799937925E+01
 0.63583942025E+01 0.69479065247E+01 0.76415802620E+01 0.84144515747E+01 0.92179800491E+01
 0.99805214189E+01 0.10615820477E+02 0.11039098577E+02 0.11187371788E+02 0.11037251922E+02
 0.10612369804E+02 0.99764228671E+01 0.92149726967E+01 0.84141760042E+01 0.76443342840E+01
 0.59969392638E+01 0.57550861373E+01 0.55931728044E+01 0.55064588122E+01 0.54821640502E+01
 0.55008859900E+01 0.55401098677E+01 0.55789849252E+01 0.56020999308E+01 0.56012923224E+01
 0.55765121826E+01 0.55364459674E+01 0.54977458122E+01 0.54816517266E+01 0.55091503209E+01
 0.55973192998E+01 0.57579052368E+01 0.59966211756E+01 0.63114477646E+01 0.66901558838E+01
 0.71085070329E+01 0.75302167229E+01 0.79094998765E+01 0.81973995994E+01 0.83520911409E+01
 0.83501065132E+01 0.81930250729E+01 0.79060874724E+01 0.75301683879E+01 0.71117602674E+01
 0.66947029659E+01 0.63147688952E+01 0.56957122579E+01 0.57552547293E+01 0.58801617764E+01
 0.60550674796E+01 0.62565720547E+01 0.64565092966E+01 0.66262823167E+01 0.67408217636E+01
 0.67819633689E+01 0.67419249300E+01 0.66262181439E+01 0.64536430839E+01 0.62520540208E+01
 0.60517656294E+01 0.58799936943E+01 0.57579051914E+01 0.56993249109E+01 0.57098439576E+01
 0.57863099967E+01 0.59170365209E+01 0.60824838425E+01 0.62564853735E+01 0.64092628837E+01
 0.65131252364E+01 0.65492281133E+01 0.65119828696E+01 0.64091982197E+01 0.62591542146E+01
 0.60868867143E+01 0.59204584974E+01 0.57867982520E+01 0.57074717931E+01 0.59972931063E+01
 0.63618835981E+01 0.67848845001E+01 0.72394871124E+01 0.76885954764E+01 0.80875688614E+01
 0.83896546241E+01 0.85541394841E+01 0.85560628812E+01 0.83939292044E+01 0.80910094479E+01
 0.76888716855E+01 0.72365334990E+01 0.67804692328E+01 0.63583940776E+01 0.59966210962E+01
 0.57098439168E+01 0.55026047778E+01 0.53714529070E+01 0.53064199102E+01 0.52916422232E+01
 0.53068442755E+01 0.53311430239E+01 0.53480419746E+01 0.53488978231E+01 0.53337177143E+01
 0.53105553177E+01 0.52946729522E+01 0.53066784831E+01 0.53685297450E+01 0.54984535109E+01
 0.57072931940E+01 0.69523163001E+01 0.76890718050E+01 0.84980896975E+01 0.93308176574E+01
 0.10116304061E+02 0.10768649338E+02 0.11202966405E+02 0.11356191007E+02 0.11204948949E+02
 0.10772339144E+02 0.10120616011E+02 0.93338281432E+01 0.84981018812E+01 0.76859745443E+01
 0.69479064014E+01 0.63114476650E+01 0.57863099168E+01 0.53714528583E+01 0.50600137275E+01
 0.48407451984E+01 0.46982102089E+01 0.46145447446E+01 0.45730165207E+01 0.45615440655E+01
 0.45750181520E+01 0.46166669019E+01 0.46982938773E+01 0.48381298375E+01 0.50560565678E+01
 0.53685667005E+01 0.57863633963E+01 0.63145624624E+01 0.87773141613E+01 0.10076298031E+02
 0.11483693150E+02 0.12892703835E+02 0.14156285048E+02 0.15114227634E+02 0.15630798241E+02
 0.15629353177E+02 0.15111526193E+02 0.14155466683E+02 0.12895179408E+02 0.11487950628E+02
 0.10079505231E+02 0.87775248344E+01 0.76415801773E+01 0.66901557794E+01 0.59170364028E+01
 0.53064198050E+01 0.48407451364E+01 0.45022836983E+01 0.42727688751E+01 0.41339789349E+01
 0.40699143371E+01 0.40702456913E+01 0.41339457843E+01 0.42707956724E+01 0.44987340217E+01
 0.48380878862E+01 0.53068774443E+01 0.59205475463E+01 0.66946146691E+01 0.76444784445E+01
 0.11988140297E+02 0.14210530109E+02 0.16556325490E+02 0.18794924402E+02 0.20654846063E+02
 0.21885511973E+02 0.22314218823E+02 0.21881149232E+02 0.20649253465E+02 0.18791658556E+02
 0.16556847143E+02 0.14213952659E+02 0.11992423128E+02 0.10039835821E+02 0.84144515724E+01
 0.71085069418E+01 0.60824836900E+01 0.52916420601E+01 0.46982100823E+01 0.42727688107E+01
 0.39912708646E+01 0.38329502081E+01 0.37819876866E+01 0.38320655643E+01 0.39894509640E+01
 0.42709440584E+01 0.46982599680E+01 0.52945818784E+01 0.60869853010E+01 0.71117809857E+01
 0.84145530067E+01 0.10036904283E+02 0.17474110075E+02 0.21102591306E+02 0.24726708695E+02
 0.27987420644E+02 0.30529478268E+02 0.31937965830E+02 0.31937577802E+02 0.30528285337E+02
 0.27985438264E+02 0.24724322146E+02 0.21100865501E+02 0.17474455939E+02 0.14182287496E+02
 0.11415973546E+02 0.92179801763E+01 0.75302166661E+01 0.62564851962E+01 0.53068440609E+01
 0.46145445602E+01 0.41339788144E+01 0.38329501544E+01 0.36884685379E+01 0.36879911228E+01
 0.38321286826E+01 0.41341834772E+01 0.46167226266E+01 0.53103824149E+01 0.62592408182E+01
 0.75300755570E+01 0.92147114289E+01 0.11411549204E+02 0.14179281581E+02 0.26301491743E+02
 0.31995020025E+02 0.37870002784E+02 0.43125623677E+02 0.46792230521E+02 0.48110702736E+02
 0.46796045467E+02 0.43130214719E+02 0.37872020178E+02 0.31993512370E+02 0.26298244638E+02
 0.21081721605E+02 0.16503782666E+02 0.12799592297E+02 0.99805217210E+01 0.79094998763E+01
 0.64092626947E+01 0.53311427683E+01 0.45730162879E+01 0.40699141699E+01 0.37819875896E+01
 0.36879910817E+01 0.37818675850E+01 0.40706880269E+01 0.45750616194E+01 0.53331401113E+01
 0.64092066551E+01 0.79066580389E+01 0.99762170163E+01 0.12796215748E+02 0.16503148780E+02
 0.21083931689E+02 0.40934233720E+02 0.50963633463E+02 0.60694042775E+02 0.68430538888E+02
 0.72713950042E+02 0.72715779865E+02 0.68434734895E+02 0.60697969276E+02 0.50965481388E+02
 0.40933715283E+02 0.31991979169E+02 0.24699420194E+02 0.18727363025E+02 0.14044687943E+02
 0.10615820988E+02 0.81973996729E+01 0.65131250467E+01 0.53480416866E+01 0.45615437909E+01
 0.40702454817E+01 0.38320654273E+01 0.38321286044E+01 0.40706879923E+01 0.45623487060E+01
 0.53480674483E+01 0.65111208192E+01 0.81938903922E+01 0.10613126809E+02 0.14044725222E+02
 0.18729903447E+02 0.24702700889E+02 0.31994352087E+02 0.66441520160E+02 0.82257781434E+02
 0.95940610042E+02 0.10520327711E+03 0.10847537790E+03 0.10520134256E+03 0.95937940943E+02
 0.82256109449E+02 0.66441776726E+02 0.50983996136E+02 0.37883561084E+02 0.27965068399E+02
 0.20581376257E+02 0.14992419597E+02 0.11039099309E+02 0.83520912914E+01 0.65492279264E+01
 0.53488975076E+01 0.45750178396E+01 0.41339455337E+01 0.39894507854E+01 0.41341833605E+01
 0.45750615551E+01 0.53480674298E+01 0.65473337391E+01 0.83501972316E+01 0.11039029284E+02
 0.14994949906E+02 0.20585069916E+02 0.27967431555E+02 0.37883480674E+02 0.50982740402E+02
 0.10526465919E+03 0.12642208949E+03 0.14262197847E+03 0.15140064673E+03 0.15139751876E+03
 0.14261435878E+03 0.12641408556E+03 0.10526006098E+03 0.82291812932E+02 0.60746344300E+02
 0.43161510672E+02 0.30516558857E+02 0.21813436037E+02 0.15506807686E+02 0.11187372716E+02
 0.83501067247E+01 0.65119826821E+01 0.53337173769E+01 0.46166665601E+01 0.42707953864E+01
 0.42709438413E+01 0.46167224804E+01 0.53331400453E+01 0.65111208410E+01 0.83501973080E+01
 0.11189277361E+02 0.15509821550E+02 0.21815538293E+02 0.30516031297E+02 0.43158545767E+02
 0.60743287331E+02 0.82291753846E+02 0.15604879428E+03 0.18087775644E+03 0.19747421839E+03
 0.20331843669E+03 0.19747070854E+03 0.18087235654E+03 0.15604370137E+03 0.12645922436E+03
 0.96013123775E+02 0.68512353698E+02 0.46844309248E+02 0.31932157679E+02 0.22246928640E+02
 0.15508300823E+02 0.11037252981E+02 0.81930253132E+01 0.64091980286E+01 0.53105549730E+01
 0.46982935256E+01 0.44987337183E+01 0.46982597350E+01 0.53103822839E+01 0.64092066758E+01
 0.81938906017E+01 0.11039029647E+02 0.15509821892E+02 0.22246665123E+02 0.31929745414E+02
 0.46841032574E+02 0.68510173683E+02 0.96013426776E+02 0.12646230500E+03 0.21560881810E+03
 0.24234764140E+03 0.25703013581E+03 0.25703167846E+03 0.24235131039E+03 0.21561216098E+03
 0.18091773568E+03 0.14269930330E+03 0.10530634382E+03 0.72811138472E+02 0.48165698638E+02
 0.31932560435E+02 0.21817561038E+02 0.14995164391E+02 0.10612370898E+02 0.79060877054E+01
 0.62591540266E+01 0.52946726278E+01 0.48381295080E+01 0.48380876015E+01 0.52945816868E+01
 0.62592408086E+01 0.79066583258E+01 0.10613127467E+02 0.14994950881E+02 0.21815539340E+02
 0.31929746132E+02 0.48164604376E+02 0.72813313750E+02 0.10531047471E+03 0.14270220476E+03
 0.18091723129E+03 0.28108125599E+03 0.30786838690E+03 0.31752224283E+03 0.30787438445E+03
 0.28109000675E+03 0.24238968731E+03 0.19754906900E+03 0.15150550883E+03 0.10859123638E+03
 0.72809196593E+02 0.46840802871E+02 0.30517850033E+02 0.20586652165E+02 0.14045376638E+02
 0.99764238926E+01 0.75301685878E+01 0.60868865495E+01 0.53066782153E+01 0.50560563012E+01
 0.53068772351E+01 0.60869852537E+01 0.75300758490E+01 0.99762178397E+01 0.14044726669E+02
 0.20585071863E+02 0.30516033364E+02 0.46841034237E+02 0.72813314599E+02 0.10859796212E+03
 0.15151053008E+03 0.19754841928E+03 0.24238313561E+03 0.34910147646E+03 0.37261779538E+03
 0.37261898671E+03 0.34910438945E+03 0.30790131026E+03 0.25709171587E+03 0.20340898459E+03
 0.15150887824E+03 0.10530798351E+03 0.68507871265E+02 0.43157232166E+02 0.27967290859E+02
 0.18730472130E+02 0.12796816996E+02 0.92149735704E+01 0.71117604286E+01 0.59204583838E+01
 0.53685295686E+01 0.53685665401E+01 0.59205474916E+01 0.71117812319E+01 0.92147122601E+01
 0.12796217416E+02 0.18729905999E+02 0.27967434707E+02 0.43158548928E+02 0.68510176179E+02
 0.10531047613E+03 0.15151053053E+03 0.20340898098E+03 0.25708983454E+03 0.30789819910E+03
 0.41250500119E+03 0.42721837117E+03 0.41250139991E+03 0.37263393595E+03 0.31755859055E+03
 0.25708990569E+03 0.19755289689E+03 0.14270745831E+03 0.96015630403E+02 0.60742098825E+02
 0.37881559699E+02 0.24702091814E+02 0.16503411790E+02 0.11411468946E+02 0.84141766834E+01
 0.66947031006E+01 0.57867982133E+01 0.54984534497E+01 0.57863633862E+01 0.66946148685E+01
 0.84145537245E+01 0.11411550818E+02 0.16503151537E+02 0.24702704693E+02 0.37883484981E+02
 0.60743291298E+02 0.96013429621E+02 0.14270220617E+03 0.19754841956E+03 0.25708983439E+03
 0.31756291301E+03 0.37263952583E+03 0.45917115439E+03 0.45916877234E+03 0.42722392104E+03
 0.37263293805E+03 0.30789503794E+03 0.24238544549E+03 0.18092317779E+03 0.12646765745E+03
 0.82293721014E+02 0.50981980871E+02 0.31993200786E+02 0.21083557578E+02 0.14179223599E+02
 0.10036662632E+02 0.76443347713E+01 0.63147690236E+01 0.57074718399E+01 0.57072932598E+01
 0.63145626498E+01 0.76444790090E+01 0.10036905641E+02 0.14179284147E+02 0.21083935611E+02
 0.31994357013E+02 0.50982745484E+02 0.82291758032E+02 0.12646230753E+03 0.18091723209E+03
 0.24238313530E+03 0.30789819853E+03 0.37263952554E+03 0.42722997543E+03 0.45753550097E+03
 0.44121213732E+03 0.39722123352E+03 0.33708576710E+03 0.27200781128E+03 0.20881465890E+03
 0.15103158722E+03 0.10177474426E+03 0.64281023855E+02 0.39776721872E+02 0.25706738636E+02
 0.17121505765E+02 0.11787207338E+02 0.86587842528E+01 0.68741880207E+01 0.59372406923E+01
 0.56411856236E+01 0.59375870794E+01 0.68743214012E+01 0.86584836414E+01 0.11786945558E+02
 0.17121690436E+02 0.25707054505E+02 0.39776634658E+02 0.64280651012E+02 0.10177470308E+03
 0.15103204300E+03 0.20881505337E+03 0.27200767717E+03 0.33708535870E+03 0.39722105767E+03
 0.44121221215E+03 0.44121213776E+03 0.41111873331E+03 0.35945040526E+03 0.29771242507E+03
 0.23467805746E+03 0.17513114806E+03 0.12227459332E+03 0.79529208089E+02 0.49401627368E+02
 0.31200617329E+02 0.20652893156E+02 0.13950577360E+02 0.99274219866E+01 0.75974758038E+01
 0.62973806645E+01 0.57016932913E+01 0.57018599996E+01 0.62975724913E+01 0.75973412327E+01
 0.99272003445E+01 0.13950525058E+02 0.20652526882E+02 0.31199512440E+02 0.49400930280E+02
 0.79531165022E+02 0.12227980874E+03 0.17513688954E+03 0.23468020920E+03 0.29770920469E+03
 0.35944381798E+03 0.41111268507E+03 0.44120975582E+03 0.39722123443E+03 0.35945040568E+03
 0.30695175264E+03 0.24885038407E+03 0.19123553671E+03 0.13799484362E+03 0.92751922506E+02
 0.58752982932E+02 0.36842493322E+02 0.24183269184E+02 0.16233091489E+02 0.11299389165E+02
 0.83896948981E+01 0.67147177934E+01 0.58273331055E+01 0.55451053498E+01 0.58271242328E+01
 0.67145631399E+01 0.83898776989E+01 0.11299783613E+02 0.16233014313E+02 0.24182126725E+02
 0.36840807359E+02 0.58752482229E+02 0.92754077125E+02 0.13799909896E+03 0.19123923212E+03
 0.24885074290E+03 0.30694816611E+03 0.35944498333E+03 0.39721732459E+03 0.41111832301E+03
 0.33708576813E+03 0.29771242550E+03 0.24885038404E+03 0.19690563094E+03 0.14652250669E+03
 0.10172067935E+03 0.66202107073E+02 0.41883720097E+02 0.27342346269E+02 0.18410600488E+02
 0.12672023094E+02 0.92042628115E+01 0.71620579017E+01 0.60016712179E+01 0.54629130694E+01
 0.54628959993E+01 0.60016118627E+01 0.71620292618E+01 0.92044830856E+01 0.12672601997E+02
 0.18411188660E+02 0.27342209911E+02 0.41882330268E+02 0.66199693096E+02 0.10171819345E+03
 0.14652106210E+03 0.19690590275E+03 0.24885231066E+03 0.29771522546E+03 0.33708822114E+03
 0.35945996215E+03 0.35945898943E+03 0.27200781171E+03 0.23467805715E+03 0.19123553590E+03
 0.14652250596E+03 0.10489285809E+03 0.70331376271E+02 0.45400971840E+02 0.29791737759E+02
 0.20219534032E+02 0.13902144536E+02 0.99722253599E+01 0.76038551948E+01 0.62019311355E+01
 0.54419521802E+01 0.51974964068E+01 0.54422439080E+01 0.62020232997E+01 0.76035284043E+01
 0.99720565331E+01 0.13903006780E+02 0.20221466975E+02 0.29793378335E+02 0.45400310997E+02
 0.70327423407E+02 0.10488693071E+03 0.14651796079E+03 0.19123576126E+03 0.23468390577E+03
 0.27201642496E+03 0.29774169444E+03 0.30698400561E+03 0.29773541224E+03 0.20881465778E+03
 0.17513114617E+03 0.13799484139E+03 0.10172067741E+03 0.70331375207E+02 0.46664494867E+02
 0.31145640768E+02 0.21417718163E+02 0.14835308095E+02 0.10609772714E+02 0.79958924423E+01
 0.64005446611E+01 0.54636001858E+01 0.50191710355E+01 0.50192031389E+01 0.54636788896E+01
 0.64004708343E+01 0.79953546570E+01 0.10609028754E+02 0.14835501435E+02 0.21419753491E+02
 0.31148584396E+02 0.46665786215E+02 0.70329260516E+02 0.10171631958E+03 0.13799157435E+03
 0.17513153350E+03 0.20881835797E+03 0.23472088082E+03 0.24891042379E+03 0.24890859490E+03
 0.23471662602E+03 0.15103158386E+03 0.12227458944E+03 0.92751918685E+02 0.66202103964E+02
 0.45400969861E+02 0.31145639938E+02 0.21836943266E+02 0.15339934308E+02 0.11034690951E+02
 0.82923970642E+01 0.65685043922E+01 0.55046854394E+01 0.49109301253E+01 0.47170309206E+01
 0.49106711561E+01 0.55047383330E+01 0.65687505567E+01 0.82918034332E+01 0.11032875392E+02
 0.15338265276E+02 0.21837286225E+02 0.31148224499E+02 0.45404125299E+02 0.66203941073E+02
 0.92751584403E+02 0.12227198745E+03 0.15102698440E+03 0.17517435924E+03 0.19131016231E+03
 0.19699205461E+03 0.19131393465E+03 0.17517974720E+03 0.10177473871E+03 0.79529202555E+02
 0.58752978048E+02 0.41883716378E+02 0.29791735392E+02 0.21417716979E+02 0.15339933918E+02
 0.11184251271E+02 0.84531911971E+01 0.66813191319E+01 0.55441675732E+01 0.48515905932E+01
 0.45171029965E+01 0.45169477989E+01 0.48515162365E+01 0.55447264123E+01 0.66821831495E+01
 0.84531242232E+01 0.11182346012E+02 0.15336838462E+02 0.21415476628E+02 0.29792218912E+02
 0.41886906088E+02 0.58756533650E+02 0.79529784457E+02 0.10177035012E+03 0.12231358025E+03
 0.13807051003E+03 0.14661872617E+03 0.14662205867E+03 0.13807854625E+03 0.12232180786E+03
 0.64281017034E+02 0.49401621204E+02 0.36842488335E+02 0.27342342726E+02 0.20219531874E+02
 0.14835307005E+02 0.11034690523E+02 0.84531910878E+01 0.67212167174E+01 0.55676956808E+01
 0.48233445183E+01 0.43985985423E+01 0.42592144911E+01 0.43984870483E+01 0.48233483385E+01
 0.55683814889E+01 0.67229032019E+01 0.84549872678E+01 0.11034780055E+02 0.14832835230E+02
 0.20215946303E+02 0.27340180903E+02 0.36842769563E+02 0.49402919125E+02 0.64281201540E+02
 0.79561424465E+02 0.92819349592E+02 0.10181176512E+03 0.10499251418E+03 0.10181335246E+03
 0.92821679382E+02 0.79563022524E+02 0.39776715155E+02 0.31200611739E+02 0.24183265008E+02
 0.18410597736E+02 0.13902142965E+02 0.10609771957E+02 0.82923967664E+01 0.66813190408E+01
 0.55676956605E+01 0.48151851170E+01 0.43442931222E+01 0.41158682785E+01 0.41158282758E+01
 0.43438934656E+01 0.48143850965E+01 0.55676117607E+01 0.66832653927E+01 0.82959554614E+01
 0.10612629356E+02 0.13902214982E+02 0.18407915677E+02 0.24179607577E+02 0.31197897916E+02
 0.39776172127E+02 0.49417402817E+02 0.58797090609E+02 0.66270854722E+02 0.70412373980E+02
 0.70410429265E+02 0.66266328605E+02 0.58792722322E+02 0.49415237101E+02 0.25706733205E+02
 0.20652888979E+02 0.16233088613E+02 0.12672021349E+02 0.99722244441E+01 0.79958920354E+01
 0.65685042405E+01 0.55441675212E+01 0.48233444948E+01 0.43442931081E+01 0.40702701967E+01
 0.39812637763E+01 0.40703714985E+01 0.43435465868E+01 0.48214196589E+01 0.55423464164E+01
 0.65686875160E+01 0.79987125797E+01 0.99763321004E+01 0.12675104315E+02 0.16233497965E+02
 0.20650671211E+02 0.25703680069E+02 0.31192737129E+02 0.36846950659E+02 0.41907607886E+02
 0.45439614619E+02 0.46707236087E+02 0.45436096000E+02 0.41903329654E+02 0.36844996189E+02
 0.31194062216E+02 0.17121502162E+02 0.13950574806E+02 0.11299387556E+02 0.92042619249E+01
 0.76038547764E+01 0.64005444927E+01 0.55046853740E+01 0.48515905542E+01 0.43985985029E+01
 0.41158682389E+01 0.39812637483E+01 0.39817178450E+01 0.41166687719E+01 0.43984500753E+01
 0.48495201361E+01 0.55011710091E+01 0.63976410255E+01 0.76037877263E+01 0.92075073325E+01
 0.11304086148E+02 0.13953959703E+02 0.17121991746E+02 0.20628386479E+02 0.24148190580E+02
 0.27310080500E+02 0.29768245814E+02 0.31129181269E+02 0.31129552163E+02 0.29769493332E+02
 0.27312335869E+02 0.24150981431E+02 0.20630343104E+02 0.11787205410E+02 0.99274207370E+01
 0.83896941852E+01 0.71620575493E+01 0.62019309832E+01 0.54636001176E+01 0.49109300743E+01
 0.45171029345E+01 0.42592144139E+01 0.41158281924E+01 0.40703714244E+01 0.41166687258E+01
 0.42609459962E+01 0.45187975419E+01 0.49107393095E+01 0.54605941318E+01 0.61975366682E+01
 0.71590667381E+01 0.83898943748E+01 0.99304488248E+01 0.11791290845E+02 0.13919432642E+02
 0.16174558731E+02 0.18334754298E+02 0.20136613681E+02 0.21334545087E+02 0.21756154639E+02
 0.21338588704E+02 0.20141821589E+02 0.18337868531E+02 0.16174216849E+02 0.13916344420E+02
 0.86587834533E+01 0.75974753278E+01 0.67147175388E+01 0.60016710880E+01 0.54419521016E+01
 0.50191709616E+01 0.47170308275E+01 0.45169476790E+01 0.43984869059E+01 0.43438933144E+01
 0.43435464461E+01 0.43984499657E+01 0.45187974810E+01 0.47205133241E+01 0.50219442306E+01
 0.54417478336E+01 0.59983107956E+01 0.67101062712E+01 0.75941961423E+01 0.86586878577E+01
 0.98879712577E+01 0.11226415104E+02 0.12570920371E+02 0.13780188749E+02 0.14700443635E+02
 0.15199898753E+02 0.15201371010E+02 0.14703148738E+02 0.13780850606E+02 0.12568123180E+02
 0.11221869670E+02 0.98847543253E+01 0.68741877727E+01 0.62973805013E+01 0.58273329855E+01
 0.54629129609E+01 0.51974962871E+01 0.50192029920E+01 0.49106709728E+01 0.48515160173E+01
 0.48233480948E+01 0.48143848489E+01 0.48214194312E+01 0.48495199490E+01 0.49107391778E+01
 0.50219441627E+01 0.52014585754E+01 0.54656103772E+01 0.58269652775E+01 0.62940448146E+01
 0.68698360513E+01 0.75469138321E+01 0.83004082003E+01 0.90828189743E+01 0.98245470472E+01
 0.10442054433E+02 0.10853310423E+02 0.10997360182E+02 0.10851536234E+02 0.10438685582E+02
 0.98204802853E+01 0.90797990425E+01 0.83001342206E+01 0.75497223665E+01 0.59372406102E+01
 0.57016931773E+01 0.55451052021E+01 0.54628958140E+01 0.54422436771E+01 0.54636786049E+01
 0.55047379945E+01 0.55447260340E+01 0.55683810970E+01 0.55676113858E+01 0.55423460844E+01
 0.55011707362E+01 0.54605939257E+01 0.54417476970E+01 0.54656103103E+01 0.55493113646E+01
 0.57045766059E+01 0.59369349965E+01 0.62440944363E+01 0.66136863093E+01 0.70217095730E+01
 0.74326362502E+01 0.78019201122E+01 0.80820759750E+01 0.82325720260E+01 0.82306518554E+01
 0.80778316158E+01 0.77985926229E+01 0.74325982840E+01 0.70249618315E+01 0.66182700431E+01
 0.62474569428E+01 0.56411855379E+01 0.57018598283E+01 0.58271239778E+01 0.60016115180E+01
 0.62020228586E+01 0.64004703020E+01 0.65687499587E+01 0.66821825290E+01 0.67229026070E+01
 0.66832648618E+01 0.65686870697E+01 0.63976406679E+01 0.61975363947E+01 0.59983105993E+01
 0.58269651522E+01 0.57045765459E+01 0.56449010120E+01 0.56534339262E+01 0.57269412653E+01
 0.58537695358E+01 0.60146365929E+01 0.61839113989E+01 0.63325547837E+01 0.64336111099E+01
 0.64687376778E+01 0.64324938273E+01 0.63324948301E+01 0.61865477413E+01 0.60190073303E+01
 0.58571852674E+01 0.57274129738E+01 0.56509903634E+01 0.59375869109E+01 0.62975721673E+01
 0.67145626445E+01 0.71620285863E+01 0.76035275633E+01 0.79953536986E+01 0.82918024336E+01
 0.84531232665E+01 0.84549864214E+01 0.82959547606E+01 0.79987120275E+01 0.76037873049E+01
 0.71590664228E+01 0.67101060396E+01 0.62940446497E+01 0.59369348879E+01 0.56534338702E+01
 0.54481670561E+01 0.53178140204E+01 0.52525832928E+01 0.52368879504E+01 0.52508459594E+01
 0.52740058542E+01 0.52902186142E+01 0.52910328847E+01 0.52764798583E+01 0.52544548510E+01
 0.52398643931E+01 0.52528322412E+01 0.53148747251E+01 0.54439577840E+01 0.56508139192E+01
 0.68743209917E+01 0.75973405293E+01 0.83898766819E+01 0.92044817798E+01 0.99720550187E+01
 0.10609027157E+02 0.11032873856E+02 0.11182344656E+02 0.11034778949E+02 0.10612628514E+02
 0.99763314910E+01 0.92075069039E+01 0.83898940723E+01 0.75941959199E+01 0.68698358766E+01
 0.62440942935E+01 0.57269411552E+01 0.53178139567E+01 0.50103223135E+01 0.47936121602E+01
 0.46525826988E+01 0.45696758435E+01 0.45284320838E+01 0.45169879638E+01 0.45303548325E+01
 0.45717201451E+01 0.46526547694E+01 0.47910326831E+01 0.50063845301E+01 0.53149101831E+01