   2   2   0   0
  0.3153084E+02  0.3592550E-09  0.3592550E-09  0.5641950E-09  0.5000000E-15
  1.000000000000000E-004
  CAR 
 Tl                                      
     23.86227328     -8.56326459  301      5.50076574      1.00000000
     -8.563  0.0000E+00  0.0000E+00
     -8.455  0.0000E+00  0.0000E+00
     -8.347  0.0000E+00  0.0000E+00
     -8.239  0.0000E+00  0.0000E+00
     -8.131  0.0000E+00  0.0000E+00
     -8.023  0.0000E+00  0.0000E+00
     -7.915  0.0000E+00  0.0000E+00
     -7.807  0.0000E+00  0.0000E+00
     -7.699  0.0000E+00  0.0000E+00
     -7.590  0.0000E+00  0.0000E+00
     -7.482  0.0000E+00  0.0000E+00
     -7.374  0.3525E-15  0.3810E-16
     -7.266  0.7993E-06  0.8640E-07
     -7.158  0.2333E+00  0.2521E-01
     -7.050  0.3219E+02  0.3504E+01
     -6.942  0.4075E+02  0.7909E+01
     -6.834  0.8464E+00  0.8000E+01
     -6.726  0.1922E-04  0.8000E+01
     -6.618  0.1232E-12  0.8000E+01
     -6.510  0.0000E+00  0.8000E+01
     -6.402  0.0000E+00  0.8000E+01
     -6.293  0.0000E+00  0.8000E+01
     -6.185  0.0000E+00  0.8000E+01
     -6.077  0.0000E+00  0.8000E+01
     -5.969  0.0000E+00  0.8000E+01
     -5.861  0.0000E+00  0.8000E+01
     -5.753  0.0000E+00  0.8000E+01
     -5.645  0.0000E+00  0.8000E+01
     -5.537  0.0000E+00  0.8000E+01
     -5.429  0.0000E+00  0.8000E+01
     -5.321  0.3088E-14  0.8000E+01
     -5.213  0.1192E-05  0.8000E+01
     -5.105  0.1289E+00  0.8014E+01
     -4.996  0.1615E+02  0.9760E+01
     -4.888  0.3750E+02  0.1381E+02
     -4.780  0.2683E+02  0.1671E+02
     -4.672  0.2023E+02  0.1890E+02
     -4.564  0.9582E+01  0.1993E+02
     -4.456  0.6037E+00  0.2000E+02
     -4.348  0.2330E-03  0.2000E+02
     -4.240  0.3355E-10  0.2000E+02
     -4.132  0.0000E+00  0.2000E+02
     -4.024  0.8221E-11  0.2000E+02
     -3.916  0.1598E-04  0.2000E+02
     -3.808  0.9511E-02  0.2000E+02
     -3.699  0.6738E-01  0.2001E+02
     -3.591  0.1794E+00  0.2003E+02
     -3.483  0.1425E+00  0.2004E+02
     -3.375  0.2390E+00  0.2007E+02
     -3.267  0.3616E+00  0.2011E+02
     -3.159  0.1940E+00  0.2013E+02
     -3.051  0.2573E+00  0.2016E+02
     -2.943  0.3278E+00  0.2019E+02
     -2.835  0.4153E+00  0.2024E+02
     -2.727  0.4408E+00  0.2028E+02
     -2.619  0.3966E+00  0.2033E+02
     -2.510  0.2699E+00  0.2036E+02
     -2.402  0.3161E+00  0.2039E+02
     -2.294  0.5714E+00  0.2045E+02
     -2.186  0.4704E+00  0.2050E+02
     -2.078  0.5912E+00  0.2057E+02
     -1.970  0.5090E+00  0.2062E+02
     -1.862  0.4769E+00  0.2067E+02
     -1.754  0.4024E+00  0.2072E+02
     -1.646  0.5246E+00  0.2077E+02
     -1.538  0.5513E+00  0.2083E+02
     -1.430  0.5688E+00  0.2090E+02
     -1.322  0.7725E+00  0.2098E+02
     -1.213  0.7160E+00  0.2106E+02
     -1.105  0.5440E+00  0.2111E+02
     -0.997  0.6990E+00  0.2119E+02
     -0.889  0.6745E+00  0.2126E+02
     -0.781  0.3184E+00  0.2130E+02
     -0.673  0.7653E+00  0.2138E+02
     -0.565  0.9716E+00  0.2149E+02
     -0.457  0.9944E+00  0.2159E+02
     -0.349  0.7301E+00  0.2167E+02
     -0.241  0.8648E+00  0.2177E+02
     -0.133  0.7958E+00  0.2185E+02
     -0.025  0.1314E+01  0.2199E+02
      0.084  0.4855E+00  0.2205E+02
      0.192  0.1097E+01  0.2216E+02
      0.300  0.1142E+01  0.2229E+02
      0.408  0.8164E+00  0.2238E+02
      0.516  0.1261E+01  0.2251E+02
      0.624  0.8483E+00  0.2260E+02
      0.732  0.1049E+01  0.2272E+02
      0.840  0.6555E+00  0.2279E+02
      0.948  0.1218E+01  0.2292E+02
      1.056  0.1222E+01  0.2305E+02
      1.164  0.1664E+01  0.2323E+02
      1.272  0.1876E+01  0.2343E+02
      1.381  0.1802E+01  0.2363E+02
      1.489  0.1389E+01  0.2378E+02
      1.597  0.8623E+00  0.2387E+02
      1.705  0.8564E+00  0.2397E+02
      1.813  0.3125E+00  0.2400E+02
      1.921  0.7243E-02  0.2400E+02
      2.029  0.1159E-06  0.2400E+02
      2.137  0.2818E-15  0.2400E+02
      2.245  0.0000E+00  0.2400E+02
      2.353  0.0000E+00  0.2400E+02
      2.461  0.0000E+00  0.2400E+02
      2.570  0.0000E+00  0.2400E+02
      2.678  0.0000E+00  0.2400E+02
      2.786  0.0000E+00  0.2400E+02
      2.894  0.1749E-11  0.2400E+02
      3.002  0.6664E-05  0.2400E+02
      3.110  0.4619E-02  0.2400E+02
      3.218  0.1242E-01  0.2400E+02
      3.326  0.7151E-01  0.2401E+02
      3.434  0.1136E+00  0.2402E+02
      3.542  0.1346E+00  0.2404E+02
      3.650  0.6345E+00  0.2410E+02
      3.758  0.3238E+00  0.2414E+02
      3.867  0.7998E+00  0.2423E+02
      3.975  0.4389E+00  0.2427E+02
      4.083  0.4868E+00  0.2433E+02
      4.191  0.6392E+00  0.2440E+02
      4.299  0.8809E+00  0.2449E+02
      4.407  0.1606E+01  0.2466E+02
      4.515  0.1232E+01  0.2480E+02
      4.623  0.1208E+01  0.2493E+02
      4.731  0.1954E+01  0.2514E+02
      4.839  0.1306E+01  0.2528E+02
      4.947  0.1284E+01  0.2542E+02
      5.055  0.1156E+01  0.2554E+02
      5.164  0.1058E+01  0.2566E+02
      5.272  0.1404E+01  0.2581E+02
      5.380  0.9815E+00  0.2592E+02
      5.488  0.6324E+00  0.2598E+02
      5.596  0.1316E+01  0.2613E+02
      5.704  0.6042E+00  0.2619E+02
      5.812  0.1190E+01  0.2632E+02
      5.920  0.7830E+00  0.2641E+02
      6.028  0.9254E+00  0.2651E+02
      6.136  0.8723E+00  0.2660E+02
      6.244  0.1378E+01  0.2675E+02
      6.352  0.1416E+01  0.2690E+02
      6.461  0.8454E+00  0.2699E+02
      6.569  0.8739E+00  0.2709E+02
      6.677  0.9849E+00  0.2719E+02
      6.785  0.8871E+00  0.2729E+02
      6.893  0.4670E+00  0.2734E+02
      7.001  0.7340E+00  0.2742E+02
      7.109  0.1279E+01  0.2756E+02
      7.217  0.1471E+01  0.2772E+02
      7.325  0.1316E+01  0.2786E+02
      7.433  0.1397E+01  0.2801E+02
      7.541  0.1609E+01  0.2818E+02
      7.650  0.8387E+00  0.2827E+02
      7.758  0.7047E+00  0.2835E+02
      7.866  0.1078E+01  0.2847E+02
      7.974  0.7662E+00  0.2855E+02
      8.082  0.8567E+00  0.2864E+02
      8.190  0.1906E+01  0.2885E+02
      8.298  0.1040E+01  0.2896E+02
      8.406  0.1150E+01  0.2909E+02
      8.514  0.1309E+01  0.2923E+02
      8.622  0.1206E+01  0.2936E+02
      8.730  0.1159E+01  0.2948E+02
      8.838  0.5177E+00  0.2954E+02
      8.947  0.1240E+01  0.2967E+02
      9.055  0.1408E+01  0.2982E+02
      9.163  0.1618E+01  0.3000E+02
      9.271  0.9431E+00  0.3010E+02
      9.379  0.1524E+01  0.3027E+02
      9.487  0.1447E+01  0.3042E+02
      9.595  0.1458E+01  0.3058E+02
      9.703  0.9409E+00  0.3068E+02
      9.811  0.1724E+01  0.3087E+02
      9.919  0.1517E+01  0.3103E+02
     10.027  0.1564E+01  0.3120E+02
     10.135  0.1452E+01  0.3136E+02
     10.244  0.1746E+01  0.3155E+02
     10.352  0.9221E+00  0.3165E+02
     10.460  0.5634E+00  0.3171E+02
     10.568  0.8565E+00  0.3180E+02
     10.676  0.1336E+01  0.3194E+02
     10.784  0.1918E+01  0.3215E+02
     10.892  0.1777E+01  0.3234E+02
     11.000  0.1653E+01  0.3252E+02
     11.108  0.1136E+01  0.3265E+02
     11.216  0.1493E+01  0.3281E+02
     11.324  0.1327E+01  0.3295E+02
     11.432  0.8267E+00  0.3304E+02
     11.541  0.7705E+00  0.3312E+02
     11.649  0.1355E+01  0.3327E+02
     11.757  0.1031E+01  0.3338E+02
     11.865  0.1436E+01  0.3354E+02
     11.973  0.1512E+01  0.3370E+02
     12.081  0.1382E+01  0.3385E+02
     12.189  0.2126E+01  0.3408E+02
     12.297  0.1586E+01  0.3425E+02
     12.405  0.1288E+01  0.3439E+02
     12.513  0.1568E+01  0.3456E+02
     12.621  0.1211E+01  0.3469E+02
     12.730  0.1092E+01  0.3481E+02
     12.838  0.8002E+00  0.3489E+02
     12.946  0.1173E+01  0.3502E+02
     13.054  0.1474E+01  0.3518E+02
     13.162  0.9210E+00  0.3528E+02
     13.270  0.1452E+01  0.3544E+02
     13.378  0.1039E+01  0.3555E+02
     13.486  0.8855E+00  0.3564E+02
     13.594  0.7179E+00  0.3572E+02
     13.702  0.1178E+01  0.3585E+02
     13.810  0.8245E+00  0.3594E+02
     13.918  0.1156E+01  0.3606E+02
     14.027  0.7975E+00  0.3615E+02
     14.135  0.1328E+01  0.3629E+02
     14.243  0.1206E+01  0.3642E+02
     14.351  0.1708E+01  0.3661E+02
     14.459  0.1068E+01  0.3672E+02
     14.567  0.1481E+01  0.3688E+02
     14.675  0.2119E+01  0.3711E+02
     14.783  0.2054E+01  0.3733E+02
     14.891  0.1858E+01  0.3754E+02
     14.999  0.5014E+00  0.3759E+02
     15.107  0.1346E+01  0.3774E+02
     15.215  0.2004E+01  0.3795E+02
     15.324  0.1760E+01  0.3814E+02
     15.432  0.1194E+01  0.3827E+02
     15.540  0.1249E+01  0.3841E+02
     15.648  0.1131E+01  0.3853E+02
     15.756  0.1422E+01  0.3868E+02
     15.864  0.5887E+00  0.3875E+02
     15.972  0.1280E+01  0.3888E+02
     16.080  0.1437E+01  0.3904E+02
     16.188  0.2029E+01  0.3926E+02
     16.296  0.2459E+01  0.3952E+02
     16.404  0.2190E+01  0.3976E+02
     16.512  0.9013E+00  0.3986E+02
     16.621  0.1093E+01  0.3998E+02
     16.729  0.8675E+00  0.4007E+02
     16.837  0.1199E+01  0.4020E+02
     16.945  0.1129E+01  0.4032E+02
     17.053  0.1089E+01  0.4044E+02
     17.161  0.8677E+00  0.4053E+02
     17.269  0.1442E+01  0.4069E+02
     17.377  0.1322E+01  0.4083E+02
     17.485  0.9202E+00  0.4093E+02
     17.593  0.7442E+00  0.4101E+02
     17.701  0.1197E+01  0.4114E+02
     17.810  0.1593E+01  0.4131E+02
     17.918  0.1425E+01  0.4147E+02
     18.026  0.1503E+01  0.4163E+02
     18.134  0.2154E+01  0.4186E+02
     18.242  0.2796E+01  0.4217E+02
     18.350  0.2246E+01  0.4241E+02
     18.458  0.2550E+01  0.4268E+02
     18.566  0.2630E+01  0.4297E+02
     18.674  0.1994E+01  0.4318E+02
     18.782  0.1440E+01  0.4334E+02
     18.890  0.1230E+01  0.4347E+02
     18.998  0.1749E+01  0.4366E+02
     19.107  0.1796E+01  0.4386E+02
     19.215  0.1851E+01  0.4406E+02
     19.323  0.2210E+01  0.4429E+02
     19.431  0.2104E+01  0.4452E+02
     19.539  0.2330E+01  0.4477E+02
     19.647  0.2142E+01  0.4500E+02
     19.755  0.2002E+01  0.4522E+02
     19.863  0.2105E+01  0.4545E+02
     19.971  0.1101E+01  0.4557E+02
     20.079  0.1660E+01  0.4575E+02
     20.187  0.2207E+01  0.4599E+02
     20.295  0.1806E+01  0.4618E+02
     20.404  0.2001E+01  0.4640E+02
     20.512  0.1283E+01  0.4654E+02
     20.620  0.1149E+01  0.4666E+02
     20.728  0.1779E+01  0.4685E+02
     20.836  0.1046E+01  0.4697E+02
     20.944  0.9425E+00  0.4707E+02
     21.052  0.1043E+01  0.4718E+02
     21.160  0.1256E+01  0.4732E+02
     21.268  0.1208E+01  0.4745E+02
     21.376  0.1047E+01  0.4756E+02
     21.484  0.7299E+00  0.4764E+02
     21.592  0.1071E+01  0.4775E+02
     21.701  0.5642E+00  0.4782E+02
     21.809  0.4009E+00  0.4786E+02
     21.917  0.5239E+00  0.4792E+02
     22.025  0.2231E+00  0.4794E+02
     22.133  0.3367E+00  0.4798E+02
     22.241  0.1005E-01  0.4798E+02
     22.349  0.8472E-01  0.4799E+02
     22.457  0.1282E+00  0.4800E+02
     22.565  0.1103E-02  0.4800E+02
     22.673  0.6962E-08  0.4800E+02
     22.781  0.9511E-17  0.4800E+02
     22.890  0.0000E+00  0.4800E+02
     22.998  0.0000E+00  0.4800E+02
     23.106  0.0000E+00  0.4800E+02
     23.214  0.0000E+00  0.4800E+02
     23.322  0.0000E+00  0.4800E+02
     23.430  0.0000E+00  0.4800E+02
     23.538  0.0000E+00  0.4800E+02
     23.646  0.0000E+00  0.4800E+02
     23.754  0.0000E+00  0.4800E+02
     23.862  0.0000E+00  0.4800E+02
