       N       E                     dE             d eps       ncg     rms          rms(c)
DAV:   1    -0.504466443576E+01   -0.50447E+01   -0.27425E-06 63216   0.881E-03    0.203E-03
DAV:   2    -0.504466454785E+01   -0.11209E-06   -0.22636E-07 52032   0.243E-03
   1 F= -.50446645E+01 E0= -.50438729E+01  d E =-.158331E-02  mag=    -0.0000    -0.0000    -0.0000
       N       E                     dE             ncg
DAV:   1    -0.517321044046E+04   -0.55608E+05    14112
DAV:   2    -0.114025327966E+05   -0.62293E+04    18096
DAV:   3    -0.114188851716E+05   -0.16352E+02    22032
DAV:   4    -0.114188997859E+05   -0.14614E-01    22512
DAV:   5    -0.114188997874E+05   -0.15828E-05    21024
