 vasp.6.4.3 19Mar24 (build Jun 26 2024 13:02:28) complex                        
  
 executed on             LinuxIFC date 2025.08.08  20:04:59
 running   48 mpi-ranks, on    4 nodes
 distrk:  each k-point on   48 cores,    1 groups
 distr:  one band on NCORE=   1 cores,   48 groups


--------------------------------------------------------------------------------------------------------


 INCAR:
   ENCUT = 308.1689
   IBRION = -1
   ISMEAR = 0
   ISYM = 2
   LCHARG = True
   LSORBIT = True
   LWAVE = True
   SAXIS = 0 0 1
   SIGMA = 0.05
   SYSTEM = Tl

 POTCAR:  PAW_PBE Tl_d 06Sep2000                  
 -----------------------------------------------------------------------------
|                                                                             |
|           W    W    AA    RRRRR   N    N  II  N    N   GGGG   !!!           |
|           W    W   A  A   R    R  NN   N  II  NN   N  G    G  !!!           |
|           W    W  A    A  R    R  N N  N  II  N N  N  G       !!!           |
|           W WW W  AAAAAA  RRRRR   N  N N  II  N  N N  G  GGG   !            |
|           WW  WW  A    A  R   R   N   NN  II  N   NN  G    G                |
|           W    W  A    A  R    R  N    N  II  N    N   GGGG   !!!           |
|                                                                             |
|     You use a magnetic or noncollinear calculation, but did not specify     |
|     the initial magnetic moment with the MAGMOM tag. Note that a            |
|     default of 1 will be used for all atoms. This ferromagnetic setup       |
|     may break the symmetry of the crystal, in particular it may rule        |
|     out finding an antiferromagnetic solution. Thence, we recommend         |
|     setting the initial magnetic moment manually or verifying carefully     |
|     that this magnetic setup is desired.                                    |
|                                                                             |
 -----------------------------------------------------------------------------

 -----------------------------------------------------------------------------
|                                                                             |
|           W    W    AA    RRRRR   N    N  II  N    N   GGGG   !!!           |
|           W    W   A  A   R    R  NN   N  II  NN   N  G    G  !!!           |
|           W    W  A    A  R    R  N N  N  II  N N  N  G       !!!           |
|           W WW W  AAAAAA  RRRRR   N  N N  II  N  N N  G  GGG   !            |
|           WW  WW  A    A  R   R   N   NN  II  N   NN  G    G                |
|           W    W  A    A  R    R  N    N  II  N    N   GGGG   !!!           |
|                                                                             |
|     For optimal performance we recommend to set                             |
|       NCORE = 2 up to number-of-cores-per-socket                            |
|     NCORE specifies how many cores store one orbital (NPAR=cpu/NCORE).      |
|     This setting can greatly improve the performance of VASP for DFT.       |
|     The default, NCORE=1 might be grossly inefficient on modern             |
|     multi-core architectures or massively parallel machines. Do your        |
|     own testing! More info at https://www.vasp.at/wiki/index.php/NCORE      |
|     Unfortunately you need to use the default for GW and RPA                |
|     calculations (for HF NCORE is supported but not extensively tested      |
|     yet).                                                                   |
|                                                                             |
 -----------------------------------------------------------------------------

 POTCAR:  PAW_PBE Tl_d 06Sep2000                  
   VRHFIN =Tl:                                                                                      
   LEXCH  = PE                                                                                      
   EATOM  =  1391.8071 eV,  102.2949 Ry                                                             
                                                                                                    
   TITEL  = PAW_PBE Tl_d 06Sep2000                                                                  
   LULTRA =        F    use ultrasoft PP ?                                                          
   IUNSCR =        1    unscreen: 0-lin 1-nonlin 2-no                                               
   RPACOR =    2.200    partial core radius                                                         
   POMASS =  204.380; ZVAL   =   13.000    mass and valenz                                          
   RCORE  =    2.500    outmost cutoff radius                                                       
   RWIGS  =    3.260; RWIGS  =    1.725    wigner-seitz radius (au A)                               
   ENMAX  =  237.053; ENMIN  =  177.789 eV                                                          
   ICORE  =        3    local potential                                                             
   LCOR   =        T    correct aug charges                                                         
   LPAW   =        T    paw PP                                                                      
   EAUG   =  395.511                                                                                
   DEXC   =    0.000                                                                                
   RMAX   =    2.553    core radius for proj-oper                                                   
   RAUG   =    1.300    factor for augmentation sphere                                              
   RDEP   =    2.630    radius for radial grids                                                     
   RDEPT  =    2.133    core radius for aug-charge                                                  
                                                                                                    
   Atomic configuration                                                                             
   16 entries                                                                                       
     n  l   j            E        occ.                                                              
     1  0  0.50    -85594.3226   2.0000                                                             
     2  0  0.50    -15237.2711   2.0000                                                             
     2  1  1.50    -13100.9674   6.0000                                                             
     3  0  0.50     -3637.0868   2.0000                                                             
     3  1  1.50     -3022.5362   6.0000                                                             
     3  2  2.50     -2387.1749  10.0000                                                             
     4  0  0.50      -811.8534   2.0000                                                             
     4  1  1.50      -610.4868   6.0000                                                             
     4  2  2.50      -374.8241  10.0000                                                             
     4  3  3.50      -114.0438  14.0000                                                             
     5  0  0.50      -130.9408   2.0000                                                             
     5  1  1.50       -76.0548   6.0000                                                             
     5  2  2.50       -15.4864  10.0000                                                             
     6  0  0.50        -9.5437   2.0000                                                             
     6  1  1.50        -2.3700   1.0000                                                             
     5  3  2.50        -2.7212   0.0000                                                             
   Description                                                                                      
     l       E           TYP  RCUT    TYP  RCUT                                                     
     2    -15.4863948     23  2.500                                                                 
     2    -16.8469774     23  2.500                                                                 
     0     -9.5436777     23  2.500                                                                 
     0     13.6058260     23  2.500                                                                 
     1     -2.3700287     23  2.500                                                                 
     1     13.6058260     23  2.500                                                                 
     3     -1.3605826      7  2.500                                                                 
  local pseudopotential read in
  partial core-charges read in
  partial kinetic energy density read in
  atomic valenz-charges read in
  non local Contribution for L=           2  read in
    real space projection operators read in
  non local Contribution for L=           2  read in
    real space projection operators read in
  non local Contribution for L=           0  read in
    real space projection operators read in
  non local Contribution for L=           0  read in
    real space projection operators read in
  non local Contribution for L=           1  read in
    real space projection operators read in
  non local Contribution for L=           1  read in
    real space projection operators read in
    PAW grid and wavefunctions read in
 
   number of l-projection  operators is LMAX  =           6
   number of lm-projection operators is LMMAX =          18
 
PAW_PBE Tl_d 06Sep2000                  :
 energy of atom  1       EATOM=-1391.8071
 kinetic energy error for atom=    0.0467 (will be added to EATOM!!)
 
 
 POSCAR: Tl2
  positions in direct lattice
  No initial velocities read in


 exchange-correlation table for PE
   RHO(1)=    0.500       N(1)  =     2000
   RHO(2)=  100.500       N(2)  =     4000
 


--------------------------------------------------------------------------------------------------------


 ion  position               nearest neighbor table
   1  0.000  0.000  0.000-   2 3.50   2 3.50   2 3.50   2 3.50   2 3.50   2 3.50
   2  0.333  0.333  0.500-   1 3.50   1 3.50   1 3.50   1 3.50   1 3.50   1 3.50
 
  LATTYP: Found a hexagonal cell.
 ALAT       =     3.5925500000
 C/A-ratio  =     1.5704583096
  
  Lattice vectors:
  
 A1 = (  -1.7962750000,  -3.1112395644,   0.0000000000)
 A2 = (   3.5925500000,   0.0000000000,   0.0000000000)
 A3 = (   0.0000000000,   0.0000000000,   5.6419500000)


Analysis of symmetry for initial positions (statically):
=====================================================================
 Subroutine PRICEL returns:
 Original cell was already a primitive cell.
 

 Routine SETGRP: Setting up the symmetry group for a 
 hexagonal supercell.


 Subroutine GETGRP returns: Found 24 space group operations
 (whereof 12 operations were pure point group operations)
 out of a pool of 24 trial point group operations.


The static configuration has the point symmetry D_3h.
 The point group associated with its full space group is D_6h.


Analysis of symmetry for dynamics (positions and initial velocities):
=====================================================================
 Subroutine PRICEL returns:
 Original cell was already a primitive cell.
 

 Routine SETGRP: Setting up the symmetry group for a 
 hexagonal supercell.


 Subroutine GETGRP returns: Found 24 space group operations
 (whereof 12 operations were pure point group operations)
 out of a pool of 24 trial point group operations.


The dynamic configuration has the point symmetry D_3h.
 The point group associated with its full space group is D_6h.


Analysis of structural, dynamic, and magnetic symmetry:
=====================================================================
 Subroutine PRICEL returns:
 Original cell was already a primitive cell.
 

 Routine SETGRP: Setting up the symmetry group for a 
 hexagonal supercell.


 Subroutine GETGRP returns: Found  2 space group operations
 (whereof  1 operations were pure point group operations)
 out of a pool of 24 trial point group operations.


The overall configuration has the point symmetry C_1 .
 The point group associated with its full space group is S_2 .


 Subroutine INISYM returns: Found  2 space group operations
 (whereof  1 operations are pure point group operations),
 and found     1 'primitive' translations


----------------------------------------------------------------------------------------

                                     Primitive cell                                     

  volume of cell :      63.0617

  direct lattice vectors                    reciprocal lattice vectors
     3.592550000  0.000000000  0.000000000     0.278353816 -0.160707650  0.000000000
     1.796275000  3.111239564  0.000000000     0.000000000  0.321415301  0.000000000
     0.000000000  0.000000000  5.641950000    -0.000000000 -0.000000000  0.177243683

  length of vectors
     3.592550000  3.592550000  5.641950000     0.321415301  0.321415301  0.177243683

  position of ions in fractional coordinates (direct lattice)
     0.000000000  0.000000000  0.000000000
     0.333333333  0.333333333  0.500000000

  ion indices of the primitive-cell ions
   primitive index   ion index
                 1           1
                 2           2

----------------------------------------------------------------------------------------

 
 
 KPOINTS: Automatic kpoint scheme                 

Automatic generation of k-mesh.
 Grid dimensions read from file:
 generate k-points for:   12   12   12

 Generating k-lattice:

  Cartesian coordinates                     Fractional coordinates (reciprocal lattice)
     0.023196151 -0.013392304  0.000000000     0.083333333  0.000000000  0.000000000
     0.000000000  0.026784608  0.000000000     0.000000000  0.083333333  0.000000000
    -0.000000000 -0.000000000  0.014770307     0.000000000  0.000000000  0.083333333

  Length of vectors
     0.026784608  0.026784608  0.014770307

  Shift w.r.t. Gamma in fractional coordinates (k-lattice)
     0.000000000  0.000000000  0.000000000

 
 Subroutine IBZKPT returns following result:
 ===========================================
 
 Found    868 irreducible k-points:
 
 Following reciprocal coordinates:
            Coordinates               Weight
  0.000000  0.000000  0.000000      1.000000
  0.083333  0.000000  0.000000      2.000000
  0.083333  0.083333  0.000000      2.000000
  0.000000  0.083333  0.000000      2.000000
  0.166667  0.000000  0.000000      2.000000
  0.166667  0.166667  0.000000      2.000000
  0.000000  0.166667  0.000000      2.000000
  0.250000  0.000000  0.000000      2.000000
  0.250000  0.250000  0.000000      2.000000
  0.000000  0.250000  0.000000      2.000000
  0.333333  0.000000  0.000000      2.000000
  0.333333  0.333333  0.000000      2.000000
  0.000000  0.333333  0.000000      2.000000
  0.416667  0.000000  0.000000      2.000000
  0.416667  0.416667  0.000000      2.000000
  0.000000  0.416667  0.000000      2.000000
  0.500000  0.000000  0.000000      1.000000
  0.500000  0.500000  0.000000      1.000000
  0.000000  0.500000  0.000000      1.000000
  0.166667  0.083333  0.000000      2.000000
  0.083333  0.166667  0.000000      2.000000
 -0.083333  0.083333  0.000000      2.000000
  0.250000  0.083333  0.000000      2.000000
  0.166667  0.250000  0.000000      2.000000
 -0.083333  0.166667  0.000000      2.000000
  0.166667 -0.083333  0.000000      2.000000
 -0.083333 -0.250000  0.000000      2.000000
 -0.250000 -0.166667  0.000000      2.000000
  0.333333  0.083333  0.000000      2.000000
  0.250000  0.333333  0.000000      2.000000
 -0.083333  0.250000  0.000000      2.000000
  0.250000 -0.083333  0.000000      2.000000
 -0.083333 -0.333333  0.000000      2.000000
 -0.333333 -0.250000  0.000000      2.000000
  0.416667  0.083333  0.000000      2.000000
  0.333333  0.416667  0.000000      2.000000
 -0.083333  0.333333  0.000000      2.000000
  0.333333 -0.083333  0.000000      2.000000
 -0.083333 -0.416667  0.000000      2.000000
 -0.416667 -0.333333  0.000000      2.000000
  0.500000  0.083333  0.000000      2.000000
  0.416667  0.500000  0.000000      2.000000
 -0.083333  0.416667  0.000000      2.000000
  0.416667 -0.083333  0.000000      2.000000
 -0.083333  0.500000  0.000000      2.000000
  0.500000 -0.416667  0.000000      2.000000
  0.333333  0.166667  0.000000      2.000000
  0.166667  0.333333  0.000000      2.000000
 -0.166667  0.166667  0.000000      2.000000
  0.416667  0.166667  0.000000      2.000000
  0.250000  0.416667  0.000000      2.000000
 -0.166667  0.250000  0.000000      2.000000
  0.250000 -0.166667  0.000000      2.000000
 -0.166667 -0.416667  0.000000      2.000000
 -0.416667 -0.250000  0.000000      2.000000
  0.500000  0.166667  0.000000      2.000000
  0.333333  0.500000  0.000000      2.000000
 -0.166667  0.333333  0.000000      2.000000
  0.333333 -0.166667  0.000000      2.000000
 -0.166667  0.500000  0.000000      2.000000
  0.500000 -0.333333  0.000000      2.000000
 -0.416667  0.166667  0.000000      2.000000
  0.416667 -0.416667  0.000000      2.000000
 -0.166667  0.416667  0.000000      2.000000
  0.500000  0.250000  0.000000      2.000000
  0.250000  0.500000  0.000000      2.000000
 -0.250000  0.250000  0.000000      2.000000
 -0.416667  0.250000  0.000000      2.000000
  0.333333 -0.416667  0.000000      2.000000
 -0.250000  0.333333  0.000000      2.000000
  0.333333 -0.250000  0.000000      2.000000
 -0.250000  0.416667  0.000000      2.000000
  0.416667 -0.333333  0.000000      2.000000
 -0.333333  0.333333  0.000000      2.000000
 -0.000000 -0.000000  0.083333      2.000000
  0.083333  0.000000  0.083333      2.000000
  0.083333  0.083333  0.083333      2.000000
 -0.000000  0.083333  0.083333      2.000000
 -0.083333  0.000000  0.083333      2.000000
 -0.083333 -0.083333  0.083333      2.000000
 -0.000000 -0.083333  0.083333      2.000000
  0.166667  0.000000  0.083333      2.000000
  0.166667  0.166667  0.083333      2.000000
 -0.000000  0.166667  0.083333      2.000000
 -0.166667 -0.000000  0.083333      2.000000
 -0.166667 -0.166667  0.083333      2.000000
 -0.000000 -0.166667  0.083333      2.000000
  0.250000  0.000000  0.083333      2.000000
  0.250000  0.250000  0.083333      2.000000
 -0.000000  0.250000  0.083333      2.000000
 -0.250000 -0.000000  0.083333      2.000000
 -0.250000 -0.250000  0.083333      2.000000
 -0.000000 -0.250000  0.083333      2.000000
  0.333333  0.000000  0.083333      2.000000
  0.333333  0.333333  0.083333      2.000000
 -0.000000  0.333333  0.083333      2.000000
 -0.333333 -0.000000  0.083333      2.000000
 -0.333333 -0.333333  0.083333      2.000000
 -0.000000 -0.333333  0.083333      2.000000
  0.416667  0.000000  0.083333      2.000000
  0.416667  0.416667  0.083333      2.000000
 -0.000000  0.416667  0.083333      2.000000
 -0.416667 -0.000000  0.083333      2.000000
 -0.416667 -0.416667  0.083333      2.000000
 -0.000000 -0.416667  0.083333      2.000000
  0.500000  0.000000  0.083333      2.000000
  0.500000  0.500000  0.083333      2.000000
 -0.000000  0.500000  0.083333      2.000000
  0.166667  0.083333  0.083333      2.000000
  0.083333  0.166667  0.083333      2.000000
 -0.083333  0.083333  0.083333      2.000000
 -0.166667 -0.083333  0.083333      2.000000
 -0.083333 -0.166667  0.083333      2.000000
  0.083333 -0.083333  0.083333      2.000000
  0.250000  0.083333  0.083333      2.000000
  0.166667  0.250000  0.083333      2.000000
 -0.083333  0.166667  0.083333      2.000000
 -0.250000 -0.083333  0.083333      2.000000
 -0.166667 -0.250000  0.083333      2.000000
  0.083333 -0.166667  0.083333      2.000000
  0.166667 -0.083333 -0.083333      2.000000
 -0.083333 -0.250000 -0.083333      2.000000
 -0.250000 -0.166667 -0.083333      2.000000
 -0.166667  0.083333 -0.083333      2.000000
  0.083333  0.250000 -0.083333      2.000000
  0.250000  0.166667 -0.083333      2.000000
  0.333333  0.083333  0.083333      2.000000
  0.250000  0.333333  0.083333      2.000000
 -0.083333  0.250000  0.083333      2.000000
 -0.333333 -0.083333  0.083333      2.000000
 -0.250000 -0.333333  0.083333      2.000000
  0.083333 -0.250000  0.083333      2.000000
  0.250000 -0.083333 -0.083333      2.000000
 -0.083333 -0.333333 -0.083333      2.000000
 -0.333333 -0.250000 -0.083333      2.000000
 -0.250000  0.083333 -0.083333      2.000000
  0.083333  0.333333 -0.083333      2.000000
  0.333333  0.250000 -0.083333      2.000000
  0.416667  0.083333  0.083333      2.000000
  0.333333  0.416667  0.083333      2.000000
 -0.083333  0.333333  0.083333      2.000000
 -0.416667 -0.083333  0.083333      2.000000
 -0.333333 -0.416667  0.083333      2.000000
  0.083333 -0.333333  0.083333      2.000000
  0.333333 -0.083333 -0.083333      2.000000
 -0.083333 -0.416667 -0.083333      2.000000
 -0.416667 -0.333333 -0.083333      2.000000
 -0.333333  0.083333 -0.083333      2.000000
  0.083333  0.416667 -0.083333      2.000000
  0.416667  0.333333 -0.083333      2.000000
  0.500000  0.083333  0.083333      2.000000
  0.416667  0.500000  0.083333      2.000000
 -0.083333  0.416667  0.083333      2.000000
  0.500000 -0.083333  0.083333      2.000000
 -0.416667  0.500000  0.083333      2.000000
  0.083333 -0.416667  0.083333      2.000000
  0.416667 -0.083333 -0.083333      2.000000
 -0.083333  0.500000 -0.083333      2.000000
  0.500000 -0.416667 -0.083333      2.000000
 -0.416667  0.083333 -0.083333      2.000000
  0.083333  0.500000 -0.083333      2.000000
  0.500000  0.416667 -0.083333      2.000000
  0.333333  0.166667  0.083333      2.000000
  0.166667  0.333333  0.083333      2.000000
 -0.166667  0.166667  0.083333      2.000000
 -0.333333 -0.166667  0.083333      2.000000
 -0.166667 -0.333333  0.083333      2.000000
  0.166667 -0.166667  0.083333      2.000000
  0.416667  0.166667  0.083333      2.000000
  0.250000  0.416667  0.083333      2.000000
 -0.166667  0.250000  0.083333      2.000000
 -0.416667 -0.166667  0.083333      2.000000
 -0.250000 -0.416667  0.083333      2.000000
  0.166667 -0.250000  0.083333      2.000000
  0.250000 -0.166667 -0.083333      2.000000
 -0.166667 -0.416667 -0.083333      2.000000
 -0.416667 -0.250000 -0.083333      2.000000
 -0.250000  0.166667 -0.083333      2.000000
  0.166667  0.416667 -0.083333      2.000000
  0.416667  0.250000 -0.083333      2.000000
  0.500000  0.166667  0.083333      2.000000
  0.333333  0.500000  0.083333      2.000000
 -0.166667  0.333333  0.083333      2.000000
  0.500000 -0.166667  0.083333      2.000000
 -0.333333  0.500000  0.083333      2.000000
  0.166667 -0.333333  0.083333      2.000000
  0.333333 -0.166667 -0.083333      2.000000
 -0.166667  0.500000 -0.083333      2.000000
  0.500000 -0.333333 -0.083333      2.000000
 -0.333333  0.166667 -0.083333      2.000000
  0.166667  0.500000 -0.083333      2.000000
  0.500000  0.333333 -0.083333      2.000000
 -0.416667  0.166667  0.083333      2.000000
  0.416667 -0.416667  0.083333      2.000000
 -0.166667  0.416667  0.083333      2.000000
  0.416667 -0.166667  0.083333      2.000000
 -0.416667  0.416667  0.083333      2.000000
  0.166667 -0.416667  0.083333      2.000000
  0.500000  0.250000  0.083333      2.000000
  0.250000  0.500000  0.083333      2.000000
 -0.250000  0.250000  0.083333      2.000000
  0.500000 -0.250000  0.083333      2.000000
 -0.250000  0.500000  0.083333      2.000000
  0.250000 -0.250000  0.083333      2.000000
 -0.416667  0.250000  0.083333      2.000000
  0.333333 -0.416667  0.083333      2.000000
 -0.250000  0.333333  0.083333      2.000000
  0.416667 -0.250000  0.083333      2.000000
 -0.333333  0.416667  0.083333      2.000000
  0.250000 -0.333333  0.083333      2.000000
  0.333333 -0.250000 -0.083333      2.000000
 -0.250000  0.416667 -0.083333      2.000000
  0.416667 -0.333333 -0.083333      2.000000
 -0.333333  0.250000 -0.083333      2.000000
  0.250000 -0.416667 -0.083333      2.000000
 -0.416667  0.333333 -0.083333      2.000000
 -0.333333  0.333333  0.083333      2.000000
  0.333333 -0.333333  0.083333      2.000000
 -0.000000 -0.000000  0.166667      2.000000
  0.083333  0.000000  0.166667      2.000000
  0.083333  0.083333  0.166667      2.000000
 -0.000000  0.083333  0.166667      2.000000
 -0.083333 -0.000000  0.166667      2.000000
 -0.083333 -0.083333  0.166667      2.000000
 -0.000000 -0.083333  0.166667      2.000000
  0.166667  0.000000  0.166667      2.000000
  0.166667  0.166667  0.166667      2.000000
 -0.000000  0.166667  0.166667      2.000000
 -0.166667 -0.000000  0.166667      2.000000
 -0.166667 -0.166667  0.166667      2.000000
 -0.000000 -0.166667  0.166667      2.000000
  0.250000  0.000000  0.166667      2.000000
  0.250000  0.250000  0.166667      2.000000
 -0.000000  0.250000  0.166667      2.000000
 -0.250000 -0.000000  0.166667      2.000000
 -0.250000 -0.250000  0.166667      2.000000
 -0.000000 -0.250000  0.166667      2.000000
  0.333333  0.000000  0.166667      2.000000
  0.333333  0.333333  0.166667      2.000000
 -0.000000  0.333333  0.166667      2.000000
 -0.333333 -0.000000  0.166667      2.000000
 -0.333333 -0.333333  0.166667      2.000000
 -0.000000 -0.333333  0.166667      2.000000
  0.416667  0.000000  0.166667      2.000000
  0.416667  0.416667  0.166667      2.000000
 -0.000000  0.416667  0.166667      2.000000
 -0.416667  0.000000  0.166667      2.000000
 -0.416667 -0.416667  0.166667      2.000000
 -0.000000 -0.416667  0.166667      2.000000
  0.500000  0.000000  0.166667      2.000000
  0.500000  0.500000  0.166667      2.000000
 -0.000000  0.500000  0.166667      2.000000
  0.166667  0.083333  0.166667      2.000000
  0.083333  0.166667  0.166667      2.000000
 -0.083333  0.083333  0.166667      2.000000
 -0.166667 -0.083333  0.166667      2.000000
 -0.083333 -0.166667  0.166667      2.000000
  0.083333 -0.083333  0.166667      2.000000
  0.250000  0.083333  0.166667      2.000000
  0.166667  0.250000  0.166667      2.000000
 -0.083333  0.166667  0.166667      2.000000
 -0.250000 -0.083333  0.166667      2.000000
 -0.166667 -0.250000  0.166667      2.000000
  0.083333 -0.166667  0.166667      2.000000
  0.166667 -0.083333 -0.166667      2.000000
 -0.083333 -0.250000 -0.166667      2.000000
 -0.250000 -0.166667 -0.166667      2.000000
 -0.166667  0.083333 -0.166667      2.000000
  0.083333  0.250000 -0.166667      2.000000
  0.250000  0.166667 -0.166667      2.000000
  0.333333  0.083333  0.166667      2.000000
  0.250000  0.333333  0.166667      2.000000
 -0.083333  0.250000  0.166667      2.000000
 -0.333333 -0.083333  0.166667      2.000000
 -0.250000 -0.333333  0.166667      2.000000
  0.083333 -0.250000  0.166667      2.000000
  0.250000 -0.083333 -0.166667      2.000000
 -0.083333 -0.333333 -0.166667      2.000000
 -0.333333 -0.250000 -0.166667      2.000000
 -0.250000  0.083333 -0.166667      2.000000
  0.083333  0.333333 -0.166667      2.000000
  0.333333  0.250000 -0.166667      2.000000
  0.416667  0.083333  0.166667      2.000000
  0.333333  0.416667  0.166667      2.000000
 -0.083333  0.333333  0.166667      2.000000
 -0.416667 -0.083333  0.166667      2.000000
 -0.333333 -0.416667  0.166667      2.000000
  0.083333 -0.333333  0.166667      2.000000
  0.333333 -0.083333 -0.166667      2.000000
 -0.083333 -0.416667 -0.166667      2.000000
 -0.416667 -0.333333 -0.166667      2.000000
 -0.333333  0.083333 -0.166667      2.000000
  0.083333  0.416667 -0.166667      2.000000
  0.416667  0.333333 -0.166667      2.000000
  0.500000  0.083333  0.166667      2.000000
  0.416667  0.500000  0.166667      2.000000
 -0.083333  0.416667  0.166667      2.000000
  0.500000 -0.083333  0.166667      2.000000
 -0.416667  0.500000  0.166667      2.000000
  0.083333 -0.416667  0.166667      2.000000
  0.416667 -0.083333 -0.166667      2.000000
 -0.083333  0.500000 -0.166667      2.000000
  0.500000 -0.416667 -0.166667      2.000000
 -0.416667  0.083333 -0.166667      2.000000
  0.083333  0.500000 -0.166667      2.000000
  0.500000  0.416667 -0.166667      2.000000
  0.333333  0.166667  0.166667      2.000000
  0.166667  0.333333  0.166667      2.000000
 -0.166667  0.166667  0.166667      2.000000
 -0.333333 -0.166667  0.166667      2.000000
 -0.166667 -0.333333  0.166667      2.000000
  0.166667 -0.166667  0.166667      2.000000
  0.416667  0.166667  0.166667      2.000000
  0.250000  0.416667  0.166667      2.000000
 -0.166667  0.250000  0.166667      2.000000
 -0.416667 -0.166667  0.166667      2.000000
 -0.250000 -0.416667  0.166667      2.000000
  0.166667 -0.250000  0.166667      2.000000
  0.250000 -0.166667 -0.166667      2.000000
 -0.166667 -0.416667 -0.166667      2.000000
 -0.416667 -0.250000 -0.166667      2.000000
 -0.250000  0.166667 -0.166667      2.000000
  0.166667  0.416667 -0.166667      2.000000
  0.416667  0.250000 -0.166667      2.000000
  0.500000  0.166667  0.166667      2.000000
  0.333333  0.500000  0.166667      2.000000
 -0.166667  0.333333  0.166667      2.000000
  0.500000 -0.166667  0.166667      2.000000
 -0.333333  0.500000  0.166667      2.000000
  0.166667 -0.333333  0.166667      2.000000
  0.333333 -0.166667 -0.166667      2.000000
 -0.166667  0.500000 -0.166667      2.000000
  0.500000 -0.333333 -0.166667      2.000000
 -0.333333  0.166667 -0.166667      2.000000
  0.166667  0.500000 -0.166667      2.000000
  0.500000  0.333333 -0.166667      2.000000
 -0.416667  0.166667  0.166667      2.000000
  0.416667 -0.416667  0.166667      2.000000
 -0.166667  0.416667  0.166667      2.000000
  0.416667 -0.166667  0.166667      2.000000
 -0.416667  0.416667  0.166667      2.000000
  0.166667 -0.416667  0.166667      2.000000
  0.500000  0.250000  0.166667      2.000000
  0.250000  0.500000  0.166667      2.000000
 -0.250000  0.250000  0.166667      2.000000
  0.500000 -0.250000  0.166667      2.000000
 -0.250000  0.500000  0.166667      2.000000
  0.250000 -0.250000  0.166667      2.000000
 -0.416667  0.250000  0.166667      2.000000
  0.333333 -0.416667  0.166667      2.000000
 -0.250000  0.333333  0.166667      2.000000
  0.416667 -0.250000  0.166667      2.000000
 -0.333333  0.416667  0.166667      2.000000
  0.250000 -0.333333  0.166667      2.000000
  0.333333 -0.250000 -0.166667      2.000000
 -0.250000  0.416667 -0.166667      2.000000
  0.416667 -0.333333 -0.166667      2.000000
 -0.333333  0.250000 -0.166667      2.000000
  0.250000 -0.416667 -0.166667      2.000000
 -0.416667  0.333333 -0.166667      2.000000
 -0.333333  0.333333  0.166667      2.000000
  0.333333 -0.333333  0.166667      2.000000
 -0.000000 -0.000000  0.250000      2.000000
  0.083333  0.000000  0.250000      2.000000
  0.083333  0.083333  0.250000      2.000000
 -0.000000  0.083333  0.250000      2.000000
 -0.083333 -0.000000  0.250000      2.000000
 -0.083333 -0.083333  0.250000      2.000000
 -0.000000 -0.083333  0.250000      2.000000
  0.166667  0.000000  0.250000      2.000000
  0.166667  0.166667  0.250000      2.000000
 -0.000000  0.166667  0.250000      2.000000
 -0.166667 -0.000000  0.250000      2.000000
 -0.166667 -0.166667  0.250000      2.000000
 -0.000000 -0.166667  0.250000      2.000000
  0.250000  0.000000  0.250000      2.000000
  0.250000  0.250000  0.250000      2.000000
 -0.000000  0.250000  0.250000      2.000000
 -0.250000  0.000000  0.250000      2.000000
 -0.250000 -0.250000  0.250000      2.000000
 -0.000000 -0.250000  0.250000      2.000000
  0.333333  0.000000  0.250000      2.000000
  0.333333  0.333333  0.250000      2.000000
 -0.000000  0.333333  0.250000      2.000000
 -0.333333 -0.000000  0.250000      2.000000
 -0.333333 -0.333333  0.250000      2.000000
 -0.000000 -0.333333  0.250000      2.000000
  0.416667  0.000000  0.250000      2.000000
  0.416667  0.416667  0.250000      2.000000
 -0.000000  0.416667  0.250000      2.000000
 -0.416667  0.000000  0.250000      2.000000
 -0.416667 -0.416667  0.250000      2.000000
 -0.000000 -0.416667  0.250000      2.000000
  0.500000  0.000000  0.250000      2.000000
  0.500000  0.500000  0.250000      2.000000
 -0.000000  0.500000  0.250000      2.000000
  0.166667  0.083333  0.250000      2.000000
  0.083333  0.166667  0.250000      2.000000
 -0.083333  0.083333  0.250000      2.000000
 -0.166667 -0.083333  0.250000      2.000000
 -0.083333 -0.166667  0.250000      2.000000
  0.083333 -0.083333  0.250000      2.000000
  0.250000  0.083333  0.250000      2.000000
  0.166667  0.250000  0.250000      2.000000
 -0.083333  0.166667  0.250000      2.000000
 -0.250000 -0.083333  0.250000      2.000000
 -0.166667 -0.250000  0.250000      2.000000
  0.083333 -0.166667  0.250000      2.000000
  0.166667 -0.083333 -0.250000      2.000000
 -0.083333 -0.250000 -0.250000      2.000000
 -0.250000 -0.166667 -0.250000      2.000000
 -0.166667  0.083333 -0.250000      2.000000
  0.083333  0.250000 -0.250000      2.000000
  0.250000  0.166667 -0.250000      2.000000
  0.333333  0.083333  0.250000      2.000000
  0.250000  0.333333  0.250000      2.000000
 -0.083333  0.250000  0.250000      2.000000
 -0.333333 -0.083333  0.250000      2.000000
 -0.250000 -0.333333  0.250000      2.000000
  0.083333 -0.250000  0.250000      2.000000
  0.250000 -0.083333 -0.250000      2.000000
 -0.083333 -0.333333 -0.250000      2.000000
 -0.333333 -0.250000 -0.250000      2.000000
 -0.250000  0.083333 -0.250000      2.000000
  0.083333  0.333333 -0.250000      2.000000
  0.333333  0.250000 -0.250000      2.000000
  0.416667  0.083333  0.250000      2.000000
  0.333333  0.416667  0.250000      2.000000
 -0.083333  0.333333  0.250000      2.000000
 -0.416667 -0.083333  0.250000      2.000000
 -0.333333 -0.416667  0.250000      2.000000
  0.083333 -0.333333  0.250000      2.000000
  0.333333 -0.083333 -0.250000      2.000000
 -0.083333 -0.416667 -0.250000      2.000000
 -0.416667 -0.333333 -0.250000      2.000000
 -0.333333  0.083333 -0.250000      2.000000
  0.083333  0.416667 -0.250000      2.000000
  0.416667  0.333333 -0.250000      2.000000
  0.500000  0.083333  0.250000      2.000000
  0.416667  0.500000  0.250000      2.000000
 -0.083333  0.416667  0.250000      2.000000
  0.500000 -0.083333  0.250000      2.000000
 -0.416667  0.500000  0.250000      2.000000
  0.083333 -0.416667  0.250000      2.000000
  0.416667 -0.083333 -0.250000      2.000000
 -0.083333  0.500000 -0.250000      2.000000
  0.500000 -0.416667 -0.250000      2.000000
 -0.416667  0.083333 -0.250000      2.000000
  0.083333  0.500000 -0.250000      2.000000
  0.500000  0.416667 -0.250000      2.000000
  0.333333  0.166667  0.250000      2.000000
  0.166667  0.333333  0.250000      2.000000
 -0.166667  0.166667  0.250000      2.000000
 -0.333333 -0.166667  0.250000      2.000000
 -0.166667 -0.333333  0.250000      2.000000
  0.166667 -0.166667  0.250000      2.000000
  0.416667  0.166667  0.250000      2.000000
  0.250000  0.416667  0.250000      2.000000
 -0.166667  0.250000  0.250000      2.000000
 -0.416667 -0.166667  0.250000      2.000000
 -0.250000 -0.416667  0.250000      2.000000
  0.166667 -0.250000  0.250000      2.000000
  0.250000 -0.166667 -0.250000      2.000000
 -0.166667 -0.416667 -0.250000      2.000000
 -0.416667 -0.250000 -0.250000      2.000000
 -0.250000  0.166667 -0.250000      2.000000
  0.166667  0.416667 -0.250000      2.000000
  0.416667  0.250000 -0.250000      2.000000
  0.500000  0.166667  0.250000      2.000000
  0.333333  0.500000  0.250000      2.000000
 -0.166667  0.333333  0.250000      2.000000
  0.500000 -0.166667  0.250000      2.000000
 -0.333333  0.500000  0.250000      2.000000
  0.166667 -0.333333  0.250000      2.000000
  0.333333 -0.166667 -0.250000      2.000000
 -0.166667  0.500000 -0.250000      2.000000
  0.500000 -0.333333 -0.250000      2.000000
 -0.333333  0.166667 -0.250000      2.000000
  0.166667  0.500000 -0.250000      2.000000
  0.500000  0.333333 -0.250000      2.000000
 -0.416667  0.166667  0.250000      2.000000
  0.416667 -0.416667  0.250000      2.000000
 -0.166667  0.416667  0.250000      2.000000
  0.416667 -0.166667  0.250000      2.000000
 -0.416667  0.416667  0.250000      2.000000
  0.166667 -0.416667  0.250000      2.000000
  0.500000  0.250000  0.250000      2.000000
  0.250000  0.500000  0.250000      2.000000
 -0.250000  0.250000  0.250000      2.000000
  0.500000 -0.250000  0.250000      2.000000
 -0.250000  0.500000  0.250000      2.000000
  0.250000 -0.250000  0.250000      2.000000
 -0.416667  0.250000  0.250000      2.000000
  0.333333 -0.416667  0.250000      2.000000
 -0.250000  0.333333  0.250000      2.000000
  0.416667 -0.250000  0.250000      2.000000
 -0.333333  0.416667  0.250000      2.000000
  0.250000 -0.333333  0.250000      2.000000
  0.333333 -0.250000 -0.250000      2.000000
 -0.250000  0.416667 -0.250000      2.000000
  0.416667 -0.333333 -0.250000      2.000000
 -0.333333  0.250000 -0.250000      2.000000
  0.250000 -0.416667 -0.250000      2.000000
 -0.416667  0.333333 -0.250000      2.000000
 -0.333333  0.333333  0.250000      2.000000
  0.333333 -0.333333  0.250000      2.000000
 -0.000000  0.000000  0.333333      2.000000
  0.083333  0.000000  0.333333      2.000000
  0.083333  0.083333  0.333333      2.000000
 -0.000000  0.083333  0.333333      2.000000
 -0.083333 -0.000000  0.333333      2.000000
 -0.083333 -0.083333  0.333333      2.000000
 -0.000000 -0.083333  0.333333      2.000000
  0.166667  0.000000  0.333333      2.000000
  0.166667  0.166667  0.333333      2.000000
 -0.000000  0.166667  0.333333      2.000000
 -0.166667 -0.000000  0.333333      2.000000
 -0.166667 -0.166667  0.333333      2.000000
 -0.000000 -0.166667  0.333333      2.000000
  0.250000  0.000000  0.333333      2.000000
  0.250000  0.250000  0.333333      2.000000
 -0.000000  0.250000  0.333333      2.000000
 -0.250000  0.000000  0.333333      2.000000
 -0.250000 -0.250000  0.333333      2.000000
 -0.000000 -0.250000  0.333333      2.000000
  0.333333  0.000000  0.333333      2.000000
  0.333333  0.333333  0.333333      2.000000
 -0.000000  0.333333  0.333333      2.000000
 -0.333333 -0.000000  0.333333      2.000000
 -0.333333 -0.333333  0.333333      2.000000
 -0.000000 -0.333333  0.333333      2.000000
  0.416667  0.000000  0.333333      2.000000
  0.416667  0.416667  0.333333      2.000000
 -0.000000  0.416667  0.333333      2.000000
 -0.416667  0.000000  0.333333      2.000000
 -0.416667 -0.416667  0.333333      2.000000
 -0.000000 -0.416667  0.333333      2.000000
  0.500000  0.000000  0.333333      2.000000
  0.500000  0.500000  0.333333      2.000000
 -0.000000  0.500000  0.333333      2.000000
  0.166667  0.083333  0.333333      2.000000
  0.083333  0.166667  0.333333      2.000000
 -0.083333  0.083333  0.333333      2.000000
 -0.166667 -0.083333  0.333333      2.000000
 -0.083333 -0.166667  0.333333      2.000000
  0.083333 -0.083333  0.333333      2.000000
  0.250000  0.083333  0.333333      2.000000
  0.166667  0.250000  0.333333      2.000000
 -0.083333  0.166667  0.333333      2.000000
 -0.250000 -0.083333  0.333333      2.000000
 -0.166667 -0.250000  0.333333      2.000000
  0.083333 -0.166667  0.333333      2.000000
  0.166667 -0.083333 -0.333333      2.000000
 -0.083333 -0.250000 -0.333333      2.000000
 -0.250000 -0.166667 -0.333333      2.000000
 -0.166667  0.083333 -0.333333      2.000000
  0.083333  0.250000 -0.333333      2.000000
  0.250000  0.166667 -0.333333      2.000000
  0.333333  0.083333  0.333333      2.000000
  0.250000  0.333333  0.333333      2.000000
 -0.083333  0.250000  0.333333      2.000000
 -0.333333 -0.083333  0.333333      2.000000
 -0.250000 -0.333333  0.333333      2.000000
  0.083333 -0.250000  0.333333      2.000000
  0.250000 -0.083333 -0.333333      2.000000
 -0.083333 -0.333333 -0.333333      2.000000
 -0.333333 -0.250000 -0.333333      2.000000
 -0.250000  0.083333 -0.333333      2.000000
  0.083333  0.333333 -0.333333      2.000000
  0.333333  0.250000 -0.333333      2.000000
  0.416667  0.083333  0.333333      2.000000
  0.333333  0.416667  0.333333      2.000000
 -0.083333  0.333333  0.333333      2.000000
 -0.416667 -0.083333  0.333333      2.000000
 -0.333333 -0.416667  0.333333      2.000000
  0.083333 -0.333333  0.333333      2.000000
  0.333333 -0.083333 -0.333333      2.000000
 -0.083333 -0.416667 -0.333333      2.000000
 -0.416667 -0.333333 -0.333333      2.000000
 -0.333333  0.083333 -0.333333      2.000000
  0.083333  0.416667 -0.333333      2.000000
  0.416667  0.333333 -0.333333      2.000000
  0.500000  0.083333  0.333333      2.000000
  0.416667  0.500000  0.333333      2.000000
 -0.083333  0.416667  0.333333      2.000000
  0.500000 -0.083333  0.333333      2.000000
 -0.416667  0.500000  0.333333      2.000000
  0.083333 -0.416667  0.333333      2.000000
  0.416667 -0.083333 -0.333333      2.000000
 -0.083333  0.500000 -0.333333      2.000000
  0.500000 -0.416667 -0.333333      2.000000
 -0.416667  0.083333 -0.333333      2.000000
  0.083333  0.500000 -0.333333      2.000000
  0.500000  0.416667 -0.333333      2.000000
  0.333333  0.166667  0.333333      2.000000
  0.166667  0.333333  0.333333      2.000000
 -0.166667  0.166667  0.333333      2.000000
 -0.333333 -0.166667  0.333333      2.000000
 -0.166667 -0.333333  0.333333      2.000000
  0.166667 -0.166667  0.333333      2.000000
  0.416667  0.166667  0.333333      2.000000
  0.250000  0.416667  0.333333      2.000000
 -0.166667  0.250000  0.333333      2.000000
 -0.416667 -0.166667  0.333333      2.000000
 -0.250000 -0.416667  0.333333      2.000000
  0.166667 -0.250000  0.333333      2.000000
  0.250000 -0.166667 -0.333333      2.000000
 -0.166667 -0.416667 -0.333333      2.000000
 -0.416667 -0.250000 -0.333333      2.000000
 -0.250000  0.166667 -0.333333      2.000000
  0.166667  0.416667 -0.333333      2.000000
  0.416667  0.250000 -0.333333      2.000000
  0.500000  0.166667  0.333333      2.000000
  0.333333  0.500000  0.333333      2.000000
 -0.166667  0.333333  0.333333      2.000000
  0.500000 -0.166667  0.333333      2.000000
 -0.333333  0.500000  0.333333      2.000000
  0.166667 -0.333333  0.333333      2.000000
  0.333333 -0.166667 -0.333333      2.000000
 -0.166667  0.500000 -0.333333      2.000000
  0.500000 -0.333333 -0.333333      2.000000
 -0.333333  0.166667 -0.333333      2.000000
  0.166667  0.500000 -0.333333      2.000000
  0.500000  0.333333 -0.333333      2.000000
 -0.416667  0.166667  0.333333      2.000000
  0.416667 -0.416667  0.333333      2.000000
 -0.166667  0.416667  0.333333      2.000000
  0.416667 -0.166667  0.333333      2.000000
 -0.416667  0.416667  0.333333      2.000000
  0.166667 -0.416667  0.333333      2.000000
  0.500000  0.250000  0.333333      2.000000
  0.250000  0.500000  0.333333      2.000000
 -0.250000  0.250000  0.333333      2.000000
  0.500000 -0.250000  0.333333      2.000000
 -0.250000  0.500000  0.333333      2.000000
  0.250000 -0.250000  0.333333      2.000000
 -0.416667  0.250000  0.333333      2.000000
  0.333333 -0.416667  0.333333      2.000000
 -0.250000  0.333333  0.333333      2.000000
  0.416667 -0.250000  0.333333      2.000000
 -0.333333  0.416667  0.333333      2.000000
  0.250000 -0.333333  0.333333      2.000000
  0.333333 -0.250000 -0.333333      2.000000
 -0.250000  0.416667 -0.333333      2.000000
  0.416667 -0.333333 -0.333333      2.000000
 -0.333333  0.250000 -0.333333      2.000000
  0.250000 -0.416667 -0.333333      2.000000
 -0.416667  0.333333 -0.333333      2.000000
 -0.333333  0.333333  0.333333      2.000000
  0.333333 -0.333333  0.333333      2.000000
 -0.000000  0.000000  0.416667      2.000000
  0.083333  0.000000  0.416667      2.000000
  0.083333  0.083333  0.416667      2.000000
 -0.000000  0.083333  0.416667      2.000000
 -0.083333 -0.000000  0.416667      2.000000
 -0.083333 -0.083333  0.416667      2.000000
 -0.000000 -0.083333  0.416667      2.000000
  0.166667  0.000000  0.416667      2.000000
  0.166667  0.166667  0.416667      2.000000
 -0.000000  0.166667  0.416667      2.000000
 -0.166667 -0.000000  0.416667      2.000000
 -0.166667 -0.166667  0.416667      2.000000
 -0.000000 -0.166667  0.416667      2.000000
  0.250000  0.000000  0.416667      2.000000
  0.250000  0.250000  0.416667      2.000000
 -0.000000  0.250000  0.416667      2.000000
 -0.250000  0.000000  0.416667      2.000000
 -0.250000 -0.250000  0.416667      2.000000
 -0.000000 -0.250000  0.416667      2.000000
  0.333333  0.000000  0.416667      2.000000
  0.333333  0.333333  0.416667      2.000000
 -0.000000  0.333333  0.416667      2.000000
 -0.333333  0.000000  0.416667      2.000000
 -0.333333 -0.333333  0.416667      2.000000
 -0.000000 -0.333333  0.416667      2.000000
  0.416667  0.000000  0.416667      2.000000
  0.416667  0.416667  0.416667      2.000000
 -0.000000  0.416667  0.416667      2.000000
 -0.416667  0.000000  0.416667      2.000000
 -0.416667 -0.416667  0.416667      2.000000
 -0.000000 -0.416667  0.416667      2.000000
  0.500000  0.000000  0.416667      2.000000
  0.500000  0.500000  0.416667      2.000000
 -0.000000  0.500000  0.416667      2.000000
  0.166667  0.083333  0.416667      2.000000
  0.083333  0.166667  0.416667      2.000000
 -0.083333  0.083333  0.416667      2.000000
 -0.166667 -0.083333  0.416667      2.000000
 -0.083333 -0.166667  0.416667      2.000000
  0.083333 -0.083333  0.416667      2.000000
  0.250000  0.083333  0.416667      2.000000
  0.166667  0.250000  0.416667      2.000000
 -0.083333  0.166667  0.416667      2.000000
 -0.250000 -0.083333  0.416667      2.000000
 -0.166667 -0.250000  0.416667      2.000000
  0.083333 -0.166667  0.416667      2.000000
  0.166667 -0.083333 -0.416667      2.000000
 -0.083333 -0.250000 -0.416667      2.000000
 -0.250000 -0.166667 -0.416667      2.000000
 -0.166667  0.083333 -0.416667      2.000000
  0.083333  0.250000 -0.416667      2.000000
  0.250000  0.166667 -0.416667      2.000000
  0.333333  0.083333  0.416667      2.000000
  0.250000  0.333333  0.416667      2.000000
 -0.083333  0.250000  0.416667      2.000000
 -0.333333 -0.083333  0.416667      2.000000
 -0.250000 -0.333333  0.416667      2.000000
  0.083333 -0.250000  0.416667      2.000000
  0.250000 -0.083333 -0.416667      2.000000
 -0.083333 -0.333333 -0.416667      2.000000
 -0.333333 -0.250000 -0.416667      2.000000
 -0.250000  0.083333 -0.416667      2.000000
  0.083333  0.333333 -0.416667      2.000000
  0.333333  0.250000 -0.416667      2.000000
  0.416667  0.083333  0.416667      2.000000
  0.333333  0.416667  0.416667      2.000000
 -0.083333  0.333333  0.416667      2.000000
 -0.416667 -0.083333  0.416667      2.000000
 -0.333333 -0.416667  0.416667      2.000000
  0.083333 -0.333333  0.416667      2.000000
  0.333333 -0.083333 -0.416667      2.000000
 -0.083333 -0.416667 -0.416667      2.000000
 -0.416667 -0.333333 -0.416667      2.000000
 -0.333333  0.083333 -0.416667      2.000000
  0.083333  0.416667 -0.416667      2.000000
  0.416667  0.333333 -0.416667      2.000000
  0.500000  0.083333  0.416667      2.000000
  0.416667  0.500000  0.416667      2.000000
 -0.083333  0.416667  0.416667      2.000000
  0.500000 -0.083333  0.416667      2.000000
 -0.416667  0.500000  0.416667      2.000000
  0.083333 -0.416667  0.416667      2.000000
  0.416667 -0.083333 -0.416667      2.000000
 -0.083333  0.500000 -0.416667      2.000000
  0.500000 -0.416667 -0.416667      2.000000
 -0.416667  0.083333 -0.416667      2.000000
  0.083333  0.500000 -0.416667      2.000000
  0.500000  0.416667 -0.416667      2.000000
  0.333333  0.166667  0.416667      2.000000
  0.166667  0.333333  0.416667      2.000000
 -0.166667  0.166667  0.416667      2.000000
 -0.333333 -0.166667  0.416667      2.000000
 -0.166667 -0.333333  0.416667      2.000000
  0.166667 -0.166667  0.416667      2.000000
  0.416667  0.166667  0.416667      2.000000
  0.250000  0.416667  0.416667      2.000000
 -0.166667  0.250000  0.416667      2.000000
 -0.416667 -0.166667  0.416667      2.000000
 -0.250000 -0.416667  0.416667      2.000000
  0.166667 -0.250000  0.416667      2.000000
  0.250000 -0.166667 -0.416667      2.000000
 -0.166667 -0.416667 -0.416667      2.000000
 -0.416667 -0.250000 -0.416667      2.000000
 -0.250000  0.166667 -0.416667      2.000000
  0.166667  0.416667 -0.416667      2.000000
  0.416667  0.250000 -0.416667      2.000000
  0.500000  0.166667  0.416667      2.000000
  0.333333  0.500000  0.416667      2.000000
 -0.166667  0.333333  0.416667      2.000000
  0.500000 -0.166667  0.416667      2.000000
 -0.333333  0.500000  0.416667      2.000000
  0.166667 -0.333333  0.416667      2.000000
  0.333333 -0.166667 -0.416667      2.000000
 -0.166667  0.500000 -0.416667      2.000000
  0.500000 -0.333333 -0.416667      2.000000
 -0.333333  0.166667 -0.416667      2.000000
  0.166667  0.500000 -0.416667      2.000000
  0.500000  0.333333 -0.416667      2.000000
 -0.416667  0.166667  0.416667      2.000000
  0.416667 -0.416667  0.416667      2.000000
 -0.166667  0.416667  0.416667      2.000000
  0.416667 -0.166667  0.416667      2.000000
 -0.416667  0.416667  0.416667      2.000000
  0.166667 -0.416667  0.416667      2.000000
  0.500000  0.250000  0.416667      2.000000
  0.250000  0.500000  0.416667      2.000000
 -0.250000  0.250000  0.416667      2.000000
  0.500000 -0.250000  0.416667      2.000000
 -0.250000  0.500000  0.416667      2.000000
  0.250000 -0.250000  0.416667      2.000000
 -0.416667  0.250000  0.416667      2.000000
  0.333333 -0.416667  0.416667      2.000000
 -0.250000  0.333333  0.416667      2.000000
  0.416667 -0.250000  0.416667      2.000000
 -0.333333  0.416667  0.416667      2.000000
  0.250000 -0.333333  0.416667      2.000000
  0.333333 -0.250000 -0.416667      2.000000
 -0.250000  0.416667 -0.416667      2.000000
  0.416667 -0.333333 -0.416667      2.000000
 -0.333333  0.250000 -0.416667      2.000000
  0.250000 -0.416667 -0.416667      2.000000
 -0.416667  0.333333 -0.416667      2.000000
 -0.333333  0.333333  0.416667      2.000000
  0.333333 -0.333333  0.416667      2.000000
 -0.000000 -0.000000  0.500000      1.000000
  0.083333  0.000000  0.500000      2.000000
  0.083333  0.083333  0.500000      2.000000
 -0.000000  0.083333  0.500000      2.000000
  0.166667  0.000000  0.500000      2.000000
  0.166667  0.166667  0.500000      2.000000
 -0.000000  0.166667  0.500000      2.000000
  0.250000  0.000000  0.500000      2.000000
  0.250000  0.250000  0.500000      2.000000
 -0.000000  0.250000  0.500000      2.000000
  0.333333  0.000000  0.500000      2.000000
  0.333333  0.333333  0.500000      2.000000
 -0.000000  0.333333  0.500000      2.000000
  0.416667  0.000000  0.500000      2.000000
  0.416667  0.416667  0.500000      2.000000
 -0.000000  0.416667  0.500000      2.000000
  0.500000  0.000000  0.500000      1.000000
  0.500000  0.500000  0.500000      1.000000
 -0.000000  0.500000  0.500000      1.000000
  0.166667  0.083333  0.500000      2.000000
  0.083333  0.166667  0.500000      2.000000
 -0.083333  0.083333  0.500000      2.000000
  0.250000  0.083333  0.500000      2.000000
  0.166667  0.250000  0.500000      2.000000
 -0.083333  0.166667  0.500000      2.000000
  0.166667 -0.083333  0.500000      2.000000
 -0.083333 -0.250000  0.500000      2.000000
 -0.250000 -0.166667  0.500000      2.000000
  0.333333  0.083333  0.500000      2.000000
  0.250000  0.333333  0.500000      2.000000
 -0.083333  0.250000  0.500000      2.000000
  0.250000 -0.083333  0.500000      2.000000
 -0.083333 -0.333333  0.500000      2.000000
 -0.333333 -0.250000  0.500000      2.000000
  0.416667  0.083333  0.500000      2.000000
  0.333333  0.416667  0.500000      2.000000
 -0.083333  0.333333  0.500000      2.000000
  0.333333 -0.083333  0.500000      2.000000
 -0.083333 -0.416667  0.500000      2.000000
 -0.416667 -0.333333  0.500000      2.000000
  0.500000  0.083333  0.500000      2.000000
  0.416667  0.500000  0.500000      2.000000
 -0.083333  0.416667  0.500000      2.000000
  0.416667 -0.083333  0.500000      2.000000
 -0.083333  0.500000  0.500000      2.000000
  0.500000 -0.416667  0.500000      2.000000
  0.333333  0.166667  0.500000      2.000000
  0.166667  0.333333  0.500000      2.000000
 -0.166667  0.166667  0.500000      2.000000
  0.416667  0.166667  0.500000      2.000000
  0.250000  0.416667  0.500000      2.000000
 -0.166667  0.250000  0.500000      2.000000
  0.250000 -0.166667  0.500000      2.000000
 -0.166667 -0.416667  0.500000      2.000000
 -0.416667 -0.250000  0.500000      2.000000
  0.500000  0.166667  0.500000      2.000000
  0.333333  0.500000  0.500000      2.000000
 -0.166667  0.333333  0.500000      2.000000
  0.333333 -0.166667  0.500000      2.000000
 -0.166667  0.500000  0.500000      2.000000
  0.500000 -0.333333  0.500000      2.000000
 -0.416667  0.166667  0.500000      2.000000
  0.416667 -0.416667  0.500000      2.000000
 -0.166667  0.416667  0.500000      2.000000
  0.500000  0.250000  0.500000      2.000000
  0.250000  0.500000  0.500000      2.000000
 -0.250000  0.250000  0.500000      2.000000
 -0.416667  0.250000  0.500000      2.000000
  0.333333 -0.416667  0.500000      2.000000
 -0.250000  0.333333  0.500000      2.000000
  0.333333 -0.250000  0.500000      2.000000
 -0.250000  0.416667  0.500000      2.000000
  0.416667 -0.333333  0.500000      2.000000
 -0.333333  0.333333  0.500000      2.000000
 
 Following cartesian coordinates:
            Coordinates               Weight
  0.000000  0.000000  0.000000      1.000000
  0.023196 -0.013392  0.000000      2.000000
  0.023196  0.013392  0.000000      2.000000
  0.000000  0.026785  0.000000      2.000000
  0.046392 -0.026785  0.000000      2.000000
  0.046392  0.026785  0.000000      2.000000
  0.000000  0.053569  0.000000      2.000000
  0.069588 -0.040177  0.000000      2.000000
  0.069588  0.040177  0.000000      2.000000
  0.000000  0.080354  0.000000      2.000000
  0.092785 -0.053569  0.000000      2.000000
  0.092785  0.053569  0.000000      2.000000
  0.000000  0.107138  0.000000      2.000000
  0.115981 -0.066962  0.000000      2.000000
  0.115981  0.066962  0.000000      2.000000
  0.000000  0.133923  0.000000      2.000000
  0.139177 -0.080354  0.000000      1.000000
  0.139177  0.080354  0.000000      1.000000
  0.000000  0.160708  0.000000      1.000000
  0.046392  0.000000  0.000000      2.000000
  0.023196  0.040177  0.000000      2.000000
 -0.023196  0.040177  0.000000      2.000000
  0.069588 -0.013392  0.000000      2.000000
  0.046392  0.053569  0.000000      2.000000
 -0.023196  0.066962  0.000000      2.000000
  0.046392 -0.053569  0.000000      2.000000
 -0.023196 -0.066962  0.000000      2.000000
 -0.069588 -0.013392  0.000000      2.000000
  0.092785 -0.026785  0.000000      2.000000
  0.069588  0.066962  0.000000      2.000000
 -0.023196  0.093746  0.000000      2.000000
  0.069588 -0.066962  0.000000      2.000000
 -0.023196 -0.093746  0.000000      2.000000
 -0.092785 -0.026785  0.000000      2.000000
  0.115981 -0.040177  0.000000      2.000000
  0.092785  0.080354  0.000000      2.000000
 -0.023196  0.120531  0.000000      2.000000
  0.092785 -0.080354  0.000000      2.000000
 -0.023196 -0.120531  0.000000      2.000000
 -0.115981 -0.040177  0.000000      2.000000
  0.139177 -0.053569  0.000000      2.000000
  0.115981  0.093746  0.000000      2.000000
 -0.023196  0.147315  0.000000      2.000000
  0.115981 -0.093746  0.000000      2.000000
 -0.023196  0.174100  0.000000      2.000000
  0.139177 -0.214277  0.000000      2.000000
  0.092785 -0.000000  0.000000      2.000000
  0.046392  0.080354  0.000000      2.000000
 -0.046392  0.080354  0.000000      2.000000
  0.115981 -0.013392  0.000000      2.000000
  0.069588  0.093746  0.000000      2.000000
 -0.046392  0.107138  0.000000      2.000000
  0.069588 -0.093746  0.000000      2.000000
 -0.046392 -0.107138  0.000000      2.000000
 -0.115981 -0.013392  0.000000      2.000000
  0.139177 -0.026785  0.000000      2.000000
  0.092785  0.107138  0.000000      2.000000
 -0.046392  0.133923  0.000000      2.000000
  0.092785 -0.107138  0.000000      2.000000
 -0.046392  0.187492  0.000000      2.000000
  0.139177 -0.187492  0.000000      2.000000
 -0.115981  0.120531  0.000000      2.000000
  0.115981 -0.200885  0.000000      2.000000
 -0.046392  0.160708  0.000000      2.000000
  0.139177 -0.000000  0.000000      2.000000
  0.069588  0.120531  0.000000      2.000000
 -0.069588  0.120531  0.000000      2.000000
 -0.115981  0.147315  0.000000      2.000000
  0.092785 -0.187492  0.000000      2.000000
 -0.069588  0.147315  0.000000      2.000000
  0.092785 -0.133923  0.000000      2.000000
 -0.069588  0.174100  0.000000      2.000000
  0.115981 -0.174100  0.000000      2.000000
 -0.092785  0.160708  0.000000      2.000000
 -0.000000 -0.000000  0.014770      2.000000
  0.023196 -0.013392  0.014770      2.000000
  0.023196  0.013392  0.014770      2.000000
 -0.000000  0.026785  0.014770      2.000000
 -0.023196  0.013392  0.014770      2.000000
 -0.023196 -0.013392  0.014770      2.000000
 -0.000000 -0.026785  0.014770      2.000000
  0.046392 -0.026785  0.014770      2.000000
  0.046392  0.026785  0.014770      2.000000
 -0.000000  0.053569  0.014770      2.000000
 -0.046392  0.026785  0.014770      2.000000
 -0.046392 -0.026785  0.014770      2.000000
 -0.000000 -0.053569  0.014770      2.000000
  0.069588 -0.040177  0.014770      2.000000
  0.069588  0.040177  0.014770      2.000000
 -0.000000  0.080354  0.014770      2.000000
 -0.069588  0.040177  0.014770      2.000000
 -0.069588 -0.040177  0.014770      2.000000
 -0.000000 -0.080354  0.014770      2.000000
  0.092785 -0.053569  0.014770      2.000000
  0.092785  0.053569  0.014770      2.000000
 -0.000000  0.107138  0.014770      2.000000
 -0.092785  0.053569  0.014770      2.000000
 -0.092785 -0.053569  0.014770      2.000000
 -0.000000 -0.107138  0.014770      2.000000
  0.115981 -0.066962  0.014770      2.000000
  0.115981  0.066962  0.014770      2.000000
 -0.000000  0.133923  0.014770      2.000000
 -0.115981  0.066962  0.014770      2.000000
 -0.115981 -0.066962  0.014770      2.000000
 -0.000000 -0.133923  0.014770      2.000000
  0.139177 -0.080354  0.014770      2.000000
  0.139177  0.080354  0.014770      2.000000
 -0.000000  0.160708  0.014770      2.000000
  0.046392  0.000000  0.014770      2.000000
  0.023196  0.040177  0.014770      2.000000
 -0.023196  0.040177  0.014770      2.000000
 -0.046392 -0.000000  0.014770      2.000000
 -0.023196 -0.040177  0.014770      2.000000
  0.023196 -0.040177  0.014770      2.000000
  0.069588 -0.013392  0.014770      2.000000
  0.046392  0.053569  0.014770      2.000000
 -0.023196  0.066962  0.014770      2.000000
 -0.069588  0.013392  0.014770      2.000000
 -0.046392 -0.053569  0.014770      2.000000
  0.023196 -0.066962  0.014770      2.000000
  0.046392 -0.053569 -0.014770      2.000000
 -0.023196 -0.066962 -0.014770      2.000000
 -0.069588 -0.013392 -0.014770      2.000000
 -0.046392  0.053569 -0.014770      2.000000
  0.023196  0.066962 -0.014770      2.000000
  0.069588  0.013392 -0.014770      2.000000
  0.092785 -0.026785  0.014770      2.000000
  0.069588  0.066962  0.014770      2.000000
 -0.023196  0.093746  0.014770      2.000000
 -0.092785  0.026785  0.014770      2.000000
 -0.069588 -0.066962  0.014770      2.000000
  0.023196 -0.093746  0.014770      2.000000
  0.069588 -0.066962 -0.014770      2.000000
 -0.023196 -0.093746 -0.014770      2.000000
 -0.092785 -0.026785 -0.014770      2.000000
 -0.069588  0.066962 -0.014770      2.000000
  0.023196  0.093746 -0.014770      2.000000
  0.092785  0.026785 -0.014770      2.000000
  0.115981 -0.040177  0.014770      2.000000
  0.092785  0.080354  0.014770      2.000000
 -0.023196  0.120531  0.014770      2.000000
 -0.115981  0.040177  0.014770      2.000000
 -0.092785 -0.080354  0.014770      2.000000
  0.023196 -0.120531  0.014770      2.000000
  0.092785 -0.080354 -0.014770      2.000000
 -0.023196 -0.120531 -0.014770      2.000000
 -0.115981 -0.040177 -0.014770      2.000000
 -0.092785  0.080354 -0.014770      2.000000
  0.023196  0.120531 -0.014770      2.000000
  0.115981  0.040177 -0.014770      2.000000
  0.139177 -0.053569  0.014770      2.000000
  0.115981  0.093746  0.014770      2.000000
 -0.023196  0.147315  0.014770      2.000000
  0.139177 -0.107138  0.014770      2.000000
 -0.115981  0.227669  0.014770      2.000000
  0.023196 -0.147315  0.014770      2.000000
  0.115981 -0.093746 -0.014770      2.000000
 -0.023196  0.174100 -0.014770      2.000000
  0.139177 -0.214277 -0.014770      2.000000
 -0.115981  0.093746 -0.014770      2.000000
  0.023196  0.147315 -0.014770      2.000000
  0.139177  0.053569 -0.014770      2.000000
  0.092785 -0.000000  0.014770      2.000000
  0.046392  0.080354  0.014770      2.000000
 -0.046392  0.080354  0.014770      2.000000
 -0.092785  0.000000  0.014770      2.000000
 -0.046392 -0.080354  0.014770      2.000000
  0.046392 -0.080354  0.014770      2.000000
  0.115981 -0.013392  0.014770      2.000000
  0.069588  0.093746  0.014770      2.000000
 -0.046392  0.107138  0.014770      2.000000
 -0.115981  0.013392  0.014770      2.000000
 -0.069588 -0.093746  0.014770      2.000000
  0.046392 -0.107138  0.014770      2.000000
  0.069588 -0.093746 -0.014770      2.000000
 -0.046392 -0.107138 -0.014770      2.000000
 -0.115981 -0.013392 -0.014770      2.000000
 -0.069588  0.093746 -0.014770      2.000000
  0.046392  0.107138 -0.014770      2.000000
  0.115981  0.013392 -0.014770      2.000000
  0.139177 -0.026785  0.014770      2.000000
  0.092785  0.107138  0.014770      2.000000
 -0.046392  0.133923  0.014770      2.000000
  0.139177 -0.133923  0.014770      2.000000
 -0.092785  0.214277  0.014770      2.000000
  0.046392 -0.133923  0.014770      2.000000
  0.092785 -0.107138 -0.014770      2.000000
 -0.046392  0.187492 -0.014770      2.000000
  0.139177 -0.187492 -0.014770      2.000000
 -0.092785  0.107138 -0.014770      2.000000
  0.046392  0.133923 -0.014770      2.000000
  0.139177  0.026785 -0.014770      2.000000
 -0.115981  0.120531  0.014770      2.000000
  0.115981 -0.200885  0.014770      2.000000
 -0.046392  0.160708  0.014770      2.000000
  0.115981 -0.120531  0.014770      2.000000
 -0.115981  0.200885  0.014770      2.000000
  0.046392 -0.160708  0.014770      2.000000
  0.139177 -0.000000  0.014770      2.000000
  0.069588  0.120531  0.014770      2.000000
 -0.069588  0.120531  0.014770      2.000000
  0.139177 -0.160708  0.014770      2.000000
 -0.069588  0.200885  0.014770      2.000000
  0.069588 -0.120531  0.014770      2.000000
 -0.115981  0.147315  0.014770      2.000000
  0.092785 -0.187492  0.014770      2.000000
 -0.069588  0.147315  0.014770      2.000000
  0.115981 -0.147315  0.014770      2.000000
 -0.092785  0.187492  0.014770      2.000000
  0.069588 -0.147315  0.014770      2.000000
  0.092785 -0.133923 -0.014770      2.000000
 -0.069588  0.174100 -0.014770      2.000000
  0.115981 -0.174100 -0.014770      2.000000
 -0.092785  0.133923 -0.014770      2.000000
  0.069588 -0.174100 -0.014770      2.000000
 -0.115981  0.174100 -0.014770      2.000000
 -0.092785  0.160708  0.014770      2.000000
  0.092785 -0.160708  0.014770      2.000000
 -0.000000 -0.000000  0.029541      2.000000
  0.023196 -0.013392  0.029541      2.000000
  0.023196  0.013392  0.029541      2.000000
 -0.000000  0.026785  0.029541      2.000000
 -0.023196  0.013392  0.029541      2.000000
 -0.023196 -0.013392  0.029541      2.000000
 -0.000000 -0.026785  0.029541      2.000000
  0.046392 -0.026785  0.029541      2.000000
  0.046392  0.026785  0.029541      2.000000
 -0.000000  0.053569  0.029541      2.000000
 -0.046392  0.026785  0.029541      2.000000
 -0.046392 -0.026785  0.029541      2.000000
 -0.000000 -0.053569  0.029541      2.000000
  0.069588 -0.040177  0.029541      2.000000
  0.069588  0.040177  0.029541      2.000000
 -0.000000  0.080354  0.029541      2.000000
 -0.069588  0.040177  0.029541      2.000000
 -0.069588 -0.040177  0.029541      2.000000
 -0.000000 -0.080354  0.029541      2.000000
  0.092785 -0.053569  0.029541      2.000000
  0.092785  0.053569  0.029541      2.000000
 -0.000000  0.107138  0.029541      2.000000
 -0.092785  0.053569  0.029541      2.000000
 -0.092785 -0.053569  0.029541      2.000000
 -0.000000 -0.107138  0.029541      2.000000
  0.115981 -0.066962  0.029541      2.000000
  0.115981  0.066962  0.029541      2.000000
 -0.000000  0.133923  0.029541      2.000000
 -0.115981  0.066962  0.029541      2.000000
 -0.115981 -0.066962  0.029541      2.000000
 -0.000000 -0.133923  0.029541      2.000000
  0.139177 -0.080354  0.029541      2.000000
  0.139177  0.080354  0.029541      2.000000
 -0.000000  0.160708  0.029541      2.000000
  0.046392  0.000000  0.029541      2.000000
  0.023196  0.040177  0.029541      2.000000
 -0.023196  0.040177  0.029541      2.000000
 -0.046392 -0.000000  0.029541      2.000000
 -0.023196 -0.040177  0.029541      2.000000
  0.023196 -0.040177  0.029541      2.000000
  0.069588 -0.013392  0.029541      2.000000
  0.046392  0.053569  0.029541      2.000000
 -0.023196  0.066962  0.029541      2.000000
 -0.069588  0.013392  0.029541      2.000000
 -0.046392 -0.053569  0.029541      2.000000
  0.023196 -0.066962  0.029541      2.000000
  0.046392 -0.053569 -0.029541      2.000000
 -0.023196 -0.066962 -0.029541      2.000000
 -0.069588 -0.013392 -0.029541      2.000000
 -0.046392  0.053569 -0.029541      2.000000
  0.023196  0.066962 -0.029541      2.000000
  0.069588  0.013392 -0.029541      2.000000
  0.092785 -0.026785  0.029541      2.000000
  0.069588  0.066962  0.029541      2.000000
 -0.023196  0.093746  0.029541      2.000000
 -0.092785  0.026785  0.029541      2.000000
 -0.069588 -0.066962  0.029541      2.000000
  0.023196 -0.093746  0.029541      2.000000
  0.069588 -0.066962 -0.029541      2.000000
 -0.023196 -0.093746 -0.029541      2.000000
 -0.092785 -0.026785 -0.029541      2.000000
 -0.069588  0.066962 -0.029541      2.000000
  0.023196  0.093746 -0.029541      2.000000
  0.092785  0.026785 -0.029541      2.000000
  0.115981 -0.040177  0.029541      2.000000
  0.092785  0.080354  0.029541      2.000000
 -0.023196  0.120531  0.029541      2.000000
 -0.115981  0.040177  0.029541      2.000000
 -0.092785 -0.080354  0.029541      2.000000
  0.023196 -0.120531  0.029541      2.000000
  0.092785 -0.080354 -0.029541      2.000000
 -0.023196 -0.120531 -0.029541      2.000000
 -0.115981 -0.040177 -0.029541      2.000000
 -0.092785  0.080354 -0.029541      2.000000
  0.023196  0.120531 -0.029541      2.000000
  0.115981  0.040177 -0.029541      2.000000
  0.139177 -0.053569  0.029541      2.000000
  0.115981  0.093746  0.029541      2.000000
 -0.023196  0.147315  0.029541      2.000000
  0.139177 -0.107138  0.029541      2.000000
 -0.115981  0.227669  0.029541      2.000000
  0.023196 -0.147315  0.029541      2.000000
  0.115981 -0.093746 -0.029541      2.000000
 -0.023196  0.174100 -0.029541      2.000000
  0.139177 -0.214277 -0.029541      2.000000
 -0.115981  0.093746 -0.029541      2.000000
  0.023196  0.147315 -0.029541      2.000000
  0.139177  0.053569 -0.029541      2.000000
  0.092785 -0.000000  0.029541      2.000000
  0.046392  0.080354  0.029541      2.000000
 -0.046392  0.080354  0.029541      2.000000
 -0.092785  0.000000  0.029541      2.000000
 -0.046392 -0.080354  0.029541      2.000000
  0.046392 -0.080354  0.029541      2.000000
  0.115981 -0.013392  0.029541      2.000000
  0.069588  0.093746  0.029541      2.000000
 -0.046392  0.107138  0.029541      2.000000
 -0.115981  0.013392  0.029541      2.000000
 -0.069588 -0.093746  0.029541      2.000000
  0.046392 -0.107138  0.029541      2.000000
  0.069588 -0.093746 -0.029541      2.000000
 -0.046392 -0.107138 -0.029541      2.000000
 -0.115981 -0.013392 -0.029541      2.000000
 -0.069588  0.093746 -0.029541      2.000000
  0.046392  0.107138 -0.029541      2.000000
  0.115981  0.013392 -0.029541      2.000000
  0.139177 -0.026785  0.029541      2.000000
  0.092785  0.107138  0.029541      2.000000
 -0.046392  0.133923  0.029541      2.000000
  0.139177 -0.133923  0.029541      2.000000
 -0.092785  0.214277  0.029541      2.000000
  0.046392 -0.133923  0.029541      2.000000
  0.092785 -0.107138 -0.029541      2.000000
 -0.046392  0.187492 -0.029541      2.000000
  0.139177 -0.187492 -0.029541      2.000000
 -0.092785  0.107138 -0.029541      2.000000
  0.046392  0.133923 -0.029541      2.000000
  0.139177  0.026785 -0.029541      2.000000
 -0.115981  0.120531  0.029541      2.000000
  0.115981 -0.200885  0.029541      2.000000
 -0.046392  0.160708  0.029541      2.000000
  0.115981 -0.120531  0.029541      2.000000
 -0.115981  0.200885  0.029541      2.000000
  0.046392 -0.160708  0.029541      2.000000
  0.139177 -0.000000  0.029541      2.000000
  0.069588  0.120531  0.029541      2.000000
 -0.069588  0.120531  0.029541      2.000000
  0.139177 -0.160708  0.029541      2.000000
 -0.069588  0.200885  0.029541      2.000000
  0.069588 -0.120531  0.029541      2.000000
 -0.115981  0.147315  0.029541      2.000000
  0.092785 -0.187492  0.029541      2.000000
 -0.069588  0.147315  0.029541      2.000000
  0.115981 -0.147315  0.029541      2.000000
 -0.092785  0.187492  0.029541      2.000000
  0.069588 -0.147315  0.029541      2.000000
  0.092785 -0.133923 -0.029541      2.000000
 -0.069588  0.174100 -0.029541      2.000000
  0.115981 -0.174100 -0.029541      2.000000
 -0.092785  0.133923 -0.029541      2.000000
  0.069588 -0.174100 -0.029541      2.000000
 -0.115981  0.174100 -0.029541      2.000000
 -0.092785  0.160708  0.029541      2.000000
  0.092785 -0.160708  0.029541      2.000000
 -0.000000 -0.000000  0.044311      2.000000
  0.023196 -0.013392  0.044311      2.000000
  0.023196  0.013392  0.044311      2.000000
 -0.000000  0.026785  0.044311      2.000000
 -0.023196  0.013392  0.044311      2.000000
 -0.023196 -0.013392  0.044311      2.000000
 -0.000000 -0.026785  0.044311      2.000000
  0.046392 -0.026785  0.044311      2.000000
  0.046392  0.026785  0.044311      2.000000
 -0.000000  0.053569  0.044311      2.000000
 -0.046392  0.026785  0.044311      2.000000
 -0.046392 -0.026785  0.044311      2.000000
 -0.000000 -0.053569  0.044311      2.000000
  0.069588 -0.040177  0.044311      2.000000
  0.069588  0.040177  0.044311      2.000000
 -0.000000  0.080354  0.044311      2.000000
 -0.069588  0.040177  0.044311      2.000000
 -0.069588 -0.040177  0.044311      2.000000
 -0.000000 -0.080354  0.044311      2.000000
  0.092785 -0.053569  0.044311      2.000000
  0.092785  0.053569  0.044311      2.000000
 -0.000000  0.107138  0.044311      2.000000
 -0.092785  0.053569  0.044311      2.000000
 -0.092785 -0.053569  0.044311      2.000000
 -0.000000 -0.107138  0.044311      2.000000
  0.115981 -0.066962  0.044311      2.000000
  0.115981  0.066962  0.044311      2.000000
 -0.000000  0.133923  0.044311      2.000000
 -0.115981  0.066962  0.044311      2.000000
 -0.115981 -0.066962  0.044311      2.000000
 -0.000000 -0.133923  0.044311      2.000000
  0.139177 -0.080354  0.044311      2.000000
  0.139177  0.080354  0.044311      2.000000
 -0.000000  0.160708  0.044311      2.000000
  0.046392  0.000000  0.044311      2.000000
  0.023196  0.040177  0.044311      2.000000
 -0.023196  0.040177  0.044311      2.000000
 -0.046392 -0.000000  0.044311      2.000000
 -0.023196 -0.040177  0.044311      2.000000
  0.023196 -0.040177  0.044311      2.000000
  0.069588 -0.013392  0.044311      2.000000
  0.046392  0.053569  0.044311      2.000000
 -0.023196  0.066962  0.044311      2.000000
 -0.069588  0.013392  0.044311      2.000000
 -0.046392 -0.053569  0.044311      2.000000
  0.023196 -0.066962  0.044311      2.000000
  0.046392 -0.053569 -0.044311      2.000000
 -0.023196 -0.066962 -0.044311      2.000000
 -0.069588 -0.013392 -0.044311      2.000000
 -0.046392  0.053569 -0.044311      2.000000
  0.023196  0.066962 -0.044311      2.000000
  0.069588  0.013392 -0.044311      2.000000
  0.092785 -0.026785  0.044311      2.000000
  0.069588  0.066962  0.044311      2.000000
 -0.023196  0.093746  0.044311      2.000000
 -0.092785  0.026785  0.044311      2.000000
 -0.069588 -0.066962  0.044311      2.000000
  0.023196 -0.093746  0.044311      2.000000
  0.069588 -0.066962 -0.044311      2.000000
 -0.023196 -0.093746 -0.044311      2.000000
 -0.092785 -0.026785 -0.044311      2.000000
 -0.069588  0.066962 -0.044311      2.000000
  0.023196  0.093746 -0.044311      2.000000
  0.092785  0.026785 -0.044311      2.000000
  0.115981 -0.040177  0.044311      2.000000
  0.092785  0.080354  0.044311      2.000000
 -0.023196  0.120531  0.044311      2.000000
 -0.115981  0.040177  0.044311      2.000000
 -0.092785 -0.080354  0.044311      2.000000
  0.023196 -0.120531  0.044311      2.000000
  0.092785 -0.080354 -0.044311      2.000000
 -0.023196 -0.120531 -0.044311      2.000000
 -0.115981 -0.040177 -0.044311      2.000000
 -0.092785  0.080354 -0.044311      2.000000
  0.023196  0.120531 -0.044311      2.000000
  0.115981  0.040177 -0.044311      2.000000
  0.139177 -0.053569  0.044311      2.000000
  0.115981  0.093746  0.044311      2.000000
 -0.023196  0.147315  0.044311      2.000000
  0.139177 -0.107138  0.044311      2.000000
 -0.115981  0.227669  0.044311      2.000000
  0.023196 -0.147315  0.044311      2.000000
  0.115981 -0.093746 -0.044311      2.000000
 -0.023196  0.174100 -0.044311      2.000000
  0.139177 -0.214277 -0.044311      2.000000
 -0.115981  0.093746 -0.044311      2.000000
  0.023196  0.147315 -0.044311      2.000000
  0.139177  0.053569 -0.044311      2.000000
  0.092785 -0.000000  0.044311      2.000000
  0.046392  0.080354  0.044311      2.000000
 -0.046392  0.080354  0.044311      2.000000
 -0.092785  0.000000  0.044311      2.000000
 -0.046392 -0.080354  0.044311      2.000000
  0.046392 -0.080354  0.044311      2.000000
  0.115981 -0.013392  0.044311      2.000000
  0.069588  0.093746  0.044311      2.000000
 -0.046392  0.107138  0.044311      2.000000
 -0.115981  0.013392  0.044311      2.000000
 -0.069588 -0.093746  0.044311      2.000000
  0.046392 -0.107138  0.044311      2.000000
  0.069588 -0.093746 -0.044311      2.000000
 -0.046392 -0.107138 -0.044311      2.000000
 -0.115981 -0.013392 -0.044311      2.000000
 -0.069588  0.093746 -0.044311      2.000000
  0.046392  0.107138 -0.044311      2.000000
  0.115981  0.013392 -0.044311      2.000000
  0.139177 -0.026785  0.044311      2.000000
  0.092785  0.107138  0.044311      2.000000
 -0.046392  0.133923  0.044311      2.000000
  0.139177 -0.133923  0.044311      2.000000
 -0.092785  0.214277  0.044311      2.000000
  0.046392 -0.133923  0.044311      2.000000
  0.092785 -0.107138 -0.044311      2.000000
 -0.046392  0.187492 -0.044311      2.000000
  0.139177 -0.187492 -0.044311      2.000000
 -0.092785  0.107138 -0.044311      2.000000
  0.046392  0.133923 -0.044311      2.000000
  0.139177  0.026785 -0.044311      2.000000
 -0.115981  0.120531  0.044311      2.000000
  0.115981 -0.200885  0.044311      2.000000
 -0.046392  0.160708  0.044311      2.000000
  0.115981 -0.120531  0.044311      2.000000
 -0.115981  0.200885  0.044311      2.000000
  0.046392 -0.160708  0.044311      2.000000
  0.139177 -0.000000  0.044311      2.000000
  0.069588  0.120531  0.044311      2.000000
 -0.069588  0.120531  0.044311      2.000000
  0.139177 -0.160708  0.044311      2.000000
 -0.069588  0.200885  0.044311      2.000000
  0.069588 -0.120531  0.044311      2.000000
 -0.115981  0.147315  0.044311      2.000000
  0.092785 -0.187492  0.044311      2.000000
 -0.069588  0.147315  0.044311      2.000000
  0.115981 -0.147315  0.044311      2.000000
 -0.092785  0.187492  0.044311      2.000000
  0.069588 -0.147315  0.044311      2.000000
  0.092785 -0.133923 -0.044311      2.000000
 -0.069588  0.174100 -0.044311      2.000000
  0.115981 -0.174100 -0.044311      2.000000
 -0.092785  0.133923 -0.044311      2.000000
  0.069588 -0.174100 -0.044311      2.000000
 -0.115981  0.174100 -0.044311      2.000000
 -0.092785  0.160708  0.044311      2.000000
  0.092785 -0.160708  0.044311      2.000000
 -0.000000 -0.000000  0.059081      2.000000
  0.023196 -0.013392  0.059081      2.000000
  0.023196  0.013392  0.059081      2.000000
 -0.000000  0.026785  0.059081      2.000000
 -0.023196  0.013392  0.059081      2.000000
 -0.023196 -0.013392  0.059081      2.000000
 -0.000000 -0.026785  0.059081      2.000000
  0.046392 -0.026785  0.059081      2.000000
  0.046392  0.026785  0.059081      2.000000
 -0.000000  0.053569  0.059081      2.000000
 -0.046392  0.026785  0.059081      2.000000
 -0.046392 -0.026785  0.059081      2.000000
 -0.000000 -0.053569  0.059081      2.000000
  0.069588 -0.040177  0.059081      2.000000
  0.069588  0.040177  0.059081      2.000000
 -0.000000  0.080354  0.059081      2.000000
 -0.069588  0.040177  0.059081      2.000000
 -0.069588 -0.040177  0.059081      2.000000
 -0.000000 -0.080354  0.059081      2.000000
  0.092785 -0.053569  0.059081      2.000000
  0.092785  0.053569  0.059081      2.000000
 -0.000000  0.107138  0.059081      2.000000
 -0.092785  0.053569  0.059081      2.000000
 -0.092785 -0.053569  0.059081      2.000000
 -0.000000 -0.107138  0.059081      2.000000
  0.115981 -0.066962  0.059081      2.000000
  0.115981  0.066962  0.059081      2.000000
 -0.000000  0.133923  0.059081      2.000000
 -0.115981  0.066962  0.059081      2.000000
 -0.115981 -0.066962  0.059081      2.000000
 -0.000000 -0.133923  0.059081      2.000000
  0.139177 -0.080354  0.059081      2.000000
  0.139177  0.080354  0.059081      2.000000
 -0.000000  0.160708  0.059081      2.000000
  0.046392  0.000000  0.059081      2.000000
  0.023196  0.040177  0.059081      2.000000
 -0.023196  0.040177  0.059081      2.000000
 -0.046392 -0.000000  0.059081      2.000000
 -0.023196 -0.040177  0.059081      2.000000
  0.023196 -0.040177  0.059081      2.000000
  0.069588 -0.013392  0.059081      2.000000
  0.046392  0.053569  0.059081      2.000000
 -0.023196  0.066962  0.059081      2.000000
 -0.069588  0.013392  0.059081      2.000000
 -0.046392 -0.053569  0.059081      2.000000
  0.023196 -0.066962  0.059081      2.000000
  0.046392 -0.053569 -0.059081      2.000000
 -0.023196 -0.066962 -0.059081      2.000000
 -0.069588 -0.013392 -0.059081      2.000000
 -0.046392  0.053569 -0.059081      2.000000
  0.023196  0.066962 -0.059081      2.000000
  0.069588  0.013392 -0.059081      2.000000
  0.092785 -0.026785  0.059081      2.000000
  0.069588  0.066962  0.059081      2.000000
 -0.023196  0.093746  0.059081      2.000000
 -0.092785  0.026785  0.059081      2.000000
 -0.069588 -0.066962  0.059081      2.000000
  0.023196 -0.093746  0.059081      2.000000
  0.069588 -0.066962 -0.059081      2.000000
 -0.023196 -0.093746 -0.059081      2.000000
 -0.092785 -0.026785 -0.059081      2.000000
 -0.069588  0.066962 -0.059081      2.000000
  0.023196  0.093746 -0.059081      2.000000
  0.092785  0.026785 -0.059081      2.000000
  0.115981 -0.040177  0.059081      2.000000
  0.092785  0.080354  0.059081      2.000000
 -0.023196  0.120531  0.059081      2.000000
 -0.115981  0.040177  0.059081      2.000000
 -0.092785 -0.080354  0.059081      2.000000
  0.023196 -0.120531  0.059081      2.000000
  0.092785 -0.080354 -0.059081      2.000000
 -0.023196 -0.120531 -0.059081      2.000000
 -0.115981 -0.040177 -0.059081      2.000000
 -0.092785  0.080354 -0.059081      2.000000
  0.023196  0.120531 -0.059081      2.000000
  0.115981  0.040177 -0.059081      2.000000
  0.139177 -0.053569  0.059081      2.000000
  0.115981  0.093746  0.059081      2.000000
 -0.023196  0.147315  0.059081      2.000000
[...]
  0.000   0.000  -0.000  -0.000  -0.000  -0.000  -0.000  -0.000   0.000   0.000   0.000   0.000  -0.000  -0.000  -0.000  -0.000
 pseudopotential strength for first ion, spin component:           4
 -9.711   0.000  -0.000  -0.000   0.000   0.000  -0.000  -0.000   0.000  -0.868  -9.741   0.000  -0.000  -0.000   0.000   0.000
 -0.000  -0.000  -9.709  -0.000  -0.000  -0.000   0.000  -0.434   0.000   0.000  -0.000  -0.000  -9.739  -0.000  -0.000  -0.000
  0.000   0.000  -0.000  -0.000  -9.708   0.000  -0.000  -0.000   0.000  -0.000   0.000   0.000  -0.000  -0.000  -9.738   0.000
 -0.000  -0.000   0.000   0.434  -0.000  -0.000  -9.709   0.000  -0.000  -0.000  -0.000  -0.000   0.000   0.413  -0.000  -0.000
  0.000   0.868   0.000   0.000   0.000  -0.000  -0.000  -0.000  -9.711   0.000   0.000   0.825   0.000   0.000   0.000  -0.000
 -9.741   0.000  -0.000  -0.000   0.000   0.000  -0.000  -0.000   0.000  -0.825  -9.752   0.000  -0.000  -0.000   0.000   0.000
 -0.000  -0.000  -9.739  -0.000  -0.000  -0.000   0.000  -0.413   0.000   0.000  -0.000  -0.000  -9.750  -0.000  -0.000  -0.000
  0.000   0.000  -0.000  -0.000  -9.738   0.000  -0.000  -0.000   0.000  -0.000   0.000   0.000  -0.000  -0.000  -9.749   0.000
 -0.000  -0.000   0.000   0.413  -0.000  -0.000  -9.739   0.000  -0.000  -0.000  -0.000  -0.000   0.000   0.392  -0.000  -0.000
  0.000   0.825   0.000   0.000   0.000  -0.000  -0.000  -0.000  -9.741   0.000   0.000   0.784   0.000   0.000   0.000  -0.000
 -0.000   0.000   0.000   0.000   0.000   0.000   0.000   0.000  -0.000  -0.000  -0.000   0.000   0.000   0.000   0.000   0.000
  0.000  -0.000  -0.000  -0.000  -0.000  -0.000  -0.000  -0.000   0.000   0.000   0.000  -0.000  -0.000  -0.000  -0.000  -0.000
 -0.000  -0.000  -0.000  -0.000   0.000  -0.000   0.000   0.000  -0.000  -0.000  -0.000  -0.000  -0.000  -0.000   0.000  -0.000
  0.000   0.000  -0.000   0.000  -0.000  -0.000  -0.000  -0.000   0.000   0.000   0.000   0.000  -0.000   0.000  -0.000  -0.000
 -0.000   0.000   0.000   0.000   0.000   0.000   0.000  -0.000  -0.000  -0.000  -0.000   0.000   0.000   0.000   0.000   0.000
 -0.000  -0.000  -0.000  -0.000   0.000  -0.000   0.000   0.000  -0.000  -0.000  -0.000  -0.000  -0.000  -0.000   0.000  -0.000
  0.000   0.000  -0.000   0.000  -0.000  -0.000  -0.000  -0.000   0.000   0.000   0.000   0.000  -0.000   0.000  -0.000  -0.000
 -0.000   0.000   0.000   0.000   0.000   0.000  -0.000  -0.000  -0.000  -0.000   0.000   0.000   0.000   0.000   0.000   0.000
 total augmentation occupancy for first ion, spin component:           1
  2.696   0.000   0.000   0.000   0.000  -0.688  -0.000  -0.000  -0.000  -0.000  -0.000  -0.000  -0.000  -0.000  -0.067  -0.000
  0.000   2.710   0.000   0.000  -0.000  -0.000  -0.704  -0.000  -0.000   0.000   0.000   0.000   0.000  -0.000  -0.000  -0.000
  0.000   0.000   2.774   0.000   0.000  -0.000  -0.000  -0.768  -0.000  -0.000  -0.017  -0.002  -0.000   0.000  -0.000   0.000
  0.000   0.000   0.000   2.710   0.000  -0.000  -0.000  -0.000  -0.704  -0.000   0.000   0.000  -0.000  -0.000  -0.000   0.000
  0.000  -0.000   0.000   0.000   2.696  -0.000   0.000  -0.000  -0.000  -0.688  -0.000  -0.000  -0.067  -0.000  -0.000   0.004
 -0.688  -0.000  -0.000  -0.000  -0.000   0.672   0.000   0.000   0.000   0.000  -0.000   0.000   0.000   0.000   0.063   0.000
 -0.000  -0.704  -0.000  -0.000   0.000   0.000   0.691   0.000   0.000  -0.000  -0.000   0.000  -0.000   0.000   0.000   0.000
 -0.000  -0.000  -0.768  -0.000  -0.000   0.000   0.000   0.754   0.000   0.000   0.015   0.002   0.000  -0.000   0.000  -0.000
 -0.000  -0.000  -0.000  -0.704  -0.000   0.000   0.000   0.000   0.691   0.000  -0.000  -0.000   0.000   0.000   0.000  -0.000
 -0.000   0.000  -0.000  -0.000  -0.688   0.000  -0.000   0.000   0.000   0.672  -0.000   0.000   0.063   0.000   0.000  -0.004
 -0.000   0.000  -0.017   0.000  -0.000  -0.000  -0.000   0.015  -0.000  -0.000   1.902   0.005  -0.000  -0.000   0.000   0.000
 -0.000   0.000  -0.002   0.000  -0.000   0.000   0.000   0.002  -0.000   0.000   0.005   0.003   0.000  -0.000   0.000  -0.000
 -0.000   0.000  -0.000  -0.000  -0.067   0.000  -0.000   0.000   0.000   0.063  -0.000   0.000   0.574   0.000  -0.000  -0.030
 -0.000  -0.000   0.000  -0.000  -0.000   0.000   0.000  -0.000   0.000   0.000  -0.000  -0.000   0.000   0.610   0.000  -0.000
 -0.067  -0.000  -0.000  -0.000  -0.000   0.063   0.000   0.000   0.000   0.000   0.000   0.000  -0.000   0.000   0.574   0.000
 -0.000  -0.000   0.000   0.000   0.004   0.000   0.000  -0.000  -0.000  -0.004   0.000  -0.000  -0.030  -0.000   0.000   0.013
  0.000   0.000   0.000   0.000   0.000  -0.000  -0.000  -0.000  -0.000  -0.000  -0.000  -0.000  -0.000  -0.031  -0.000   0.000
  0.004   0.000   0.000   0.000  -0.000  -0.004  -0.000  -0.000  -0.000  -0.000   0.000  -0.000   0.000  -0.000  -0.030   0.000
 total augmentation occupancy for first ion, spin component:           2
  0.000   0.000   0.000   0.000   0.000  -0.000   0.000  -0.000  -0.000  -0.000   0.000   0.000  -0.000  -0.000  -0.000   0.000
  0.000   0.000  -0.000  -0.000  -0.000  -0.000  -0.000   0.000  -0.000   0.000   0.000   0.000  -0.000  -0.000   0.000  -0.000
  0.000  -0.000   0.000  -0.000   0.000  -0.000   0.000  -0.000  -0.000  -0.000   0.000  -0.000   0.000  -0.000   0.000  -0.000
  0.000  -0.000  -0.000   0.000   0.000  -0.000   0.000   0.000  -0.000  -0.000   0.000   0.000   0.000  -0.000   0.000  -0.000
  0.000  -0.000   0.000   0.000   0.000   0.000   0.000  -0.000   0.000  -0.000  -0.000   0.000  -0.000   0.000   0.000   0.000
 -0.000  -0.000  -0.000  -0.000   0.000  -0.000  -0.000   0.000  -0.000   0.000  -0.000  -0.000   0.000   0.000   0.000  -0.000
  0.000  -0.000   0.000   0.000   0.000  -0.000  -0.000  -0.000  -0.000   0.000  -0.000  -0.000   0.000   0.000  -0.000   0.000
 -0.000   0.000  -0.000   0.000  -0.000   0.000  -0.000  -0.000  -0.000   0.000  -0.000   0.000  -0.000  -0.000  -0.000   0.000
 -0.000  -0.000  -0.000  -0.000   0.000  -0.000  -0.000  -0.000  -0.000  -0.000  -0.000  -0.000  -0.000   0.000  -0.000   0.000
 -0.000   0.000  -0.000  -0.000  -0.000   0.000   0.000   0.000  -0.000  -0.000   0.000  -0.000   0.000  -0.000  -0.000  -0.000
  0.000   0.000   0.000   0.000  -0.000  -0.000  -0.000  -0.000  -0.000   0.000  -0.000  -0.000   0.000  -0.000   0.000   0.000
  0.000   0.000  -0.000   0.000   0.000  -0.000  -0.000   0.000  -0.000  -0.000  -0.000  -0.000  -0.000   0.000  -0.000   0.000
 -0.000  -0.000   0.000   0.000  -0.000   0.000   0.000  -0.000  -0.000   0.000   0.000  -0.000  -0.000  -0.000  -0.000  -0.000
 -0.000  -0.000  -0.000  -0.000   0.000   0.000   0.000  -0.000   0.000  -0.000  -0.000   0.000  -0.000  -0.000  -0.000  -0.000
 -0.000   0.000   0.000   0.000   0.000   0.000  -0.000  -0.000  -0.000  -0.000   0.000  -0.000  -0.000  -0.000  -0.000   0.000
  0.000  -0.000  -0.000  -0.000   0.000  -0.000   0.000   0.000   0.000  -0.000   0.000   0.000  -0.000  -0.000   0.000  -0.000
  0.000  -0.000  -0.000   0.000  -0.000  -0.000   0.000   0.000  -0.000   0.000   0.000  -0.000   0.000  -0.000   0.000  -0.000
  0.000  -0.000  -0.000   0.000  -0.000  -0.000   0.000   0.000  -0.000   0.000   0.000   0.000  -0.000  -0.000  -0.000   0.000
 total augmentation occupancy for first ion, spin component:           3
  0.000   0.000   0.000   0.000   0.000  -0.000  -0.000  -0.000   0.000   0.000   0.000   0.000   0.000   0.000  -0.000  -0.000
  0.000   0.000  -0.000  -0.000  -0.000  -0.000  -0.000   0.000   0.000   0.000   0.000   0.000  -0.000   0.000   0.000   0.000
  0.000  -0.000   0.000  -0.000  -0.000  -0.000  -0.000  -0.000   0.000   0.000   0.000  -0.000  -0.000   0.000   0.000   0.000
  0.000  -0.000  -0.000   0.000   0.000  -0.000  -0.000   0.000  -0.000  -0.000   0.000   0.000   0.000  -0.000   0.000   0.000
  0.000  -0.000  -0.000   0.000   0.000  -0.000  -0.000   0.000  -0.000  -0.000   0.000  -0.000  -0.000  -0.000  -0.000   0.000
 -0.000  -0.000  -0.000  -0.000  -0.000  -0.000  -0.000   0.000  -0.000   0.000  -0.000  -0.000  -0.000  -0.000   0.000   0.000
 -0.000  -0.000  -0.000  -0.000  -0.000  -0.000  -0.000  -0.000  -0.000   0.000  -0.000  -0.000   0.000  -0.000  -0.000  -0.000
 -0.000   0.000  -0.000   0.000   0.000   0.000  -0.000  -0.000  -0.000  -0.000  -0.000   0.000   0.000  -0.000  -0.000  -0.000
  0.000   0.000   0.000  -0.000  -0.000  -0.000  -0.000  -0.000  -0.000  -0.000  -0.000  -0.000  -0.000   0.000  -0.000  -0.000
  0.000   0.000   0.000  -0.000  -0.000   0.000   0.000  -0.000  -0.000  -0.000   0.000   0.000   0.000   0.000   0.000  -0.000
  0.000   0.000   0.000   0.000   0.000  -0.000  -0.000  -0.000  -0.000   0.000  -0.000  -0.000  -0.000   0.000   0.000  -0.000
  0.000   0.000  -0.000   0.000  -0.000  -0.000  -0.000   0.000  -0.000   0.000  -0.000  -0.000   0.000   0.000  -0.000  -0.000
  0.000  -0.000  -0.000   0.000  -0.000  -0.000   0.000   0.000  -0.000   0.000  -0.000   0.000  -0.000  -0.000  -0.000  -0.000
  0.000   0.000   0.000  -0.000  -0.000  -0.000  -0.000  -0.000   0.000   0.000   0.000   0.000  -0.000  -0.000  -0.000  -0.000
 -0.000   0.000   0.000   0.000  -0.000   0.000  -0.000  -0.000  -0.000   0.000   0.000  -0.000  -0.000  -0.000  -0.000  -0.000
 -0.000   0.000   0.000   0.000   0.000   0.000  -0.000  -0.000  -0.000  -0.000  -0.000  -0.000  -0.000  -0.000  -0.000   0.000
 -0.000   0.000  -0.000   0.000   0.000   0.000  -0.000   0.000  -0.000  -0.000  -0.000  -0.000   0.000  -0.000   0.000   0.000
  0.000   0.000  -0.000  -0.000   0.000  -0.000  -0.000   0.000   0.000  -0.000   0.000   0.000   0.000   0.000  -0.000   0.000
 total augmentation occupancy for first ion, spin component:           4
  0.000  -0.000  -0.000  -0.000   0.000  -0.000  -0.000   0.000  -0.000  -0.000   0.000   0.000  -0.000   0.000  -0.000   0.000
 -0.000   0.000  -0.000   0.000   0.000   0.000  -0.000  -0.000   0.000  -0.000  -0.000  -0.000   0.000   0.000  -0.000  -0.000
 -0.000  -0.000   0.000  -0.000  -0.000   0.000   0.000  -0.000   0.000   0.000   0.000  -0.000  -0.000  -0.000   0.000   0.000
 -0.000   0.000  -0.000   0.000  -0.000   0.000   0.000  -0.000  -0.000   0.000  -0.000  -0.000  -0.000   0.000  -0.000   0.000
  0.000   0.000  -0.000  -0.000   0.000  -0.000   0.000   0.000  -0.000  -0.000  -0.000   0.000  -0.000   0.000  -0.000   0.000
 -0.000   0.000   0.000   0.000  -0.000  -0.000  -0.000   0.000  -0.000   0.000  -0.000   0.000   0.000  -0.000   0.000  -0.000
 -0.000  -0.000   0.000   0.000   0.000  -0.000  -0.000  -0.000  -0.000   0.000   0.000   0.000  -0.000  -0.000   0.000   0.000
  0.000  -0.000  -0.000  -0.000   0.000   0.000  -0.000  -0.000  -0.000  -0.000  -0.000   0.000   0.000   0.000  -0.000  -0.000
 -0.000   0.000   0.000  -0.000  -0.000  -0.000  -0.000  -0.000  -0.000  -0.000   0.000   0.000   0.000  -0.000   0.000  -0.000
 -0.000  -0.000   0.000   0.000  -0.000   0.000   0.000  -0.000  -0.000  -0.000   0.000   0.000   0.000  -0.000   0.000  -0.000
  0.000  -0.000   0.000  -0.000  -0.000  -0.000   0.000  -0.000   0.000   0.000  -0.000  -0.000  -0.000   0.000  -0.000   0.000
  0.000  -0.000  -0.000  -0.000   0.000   0.000   0.000   0.000   0.000   0.000  -0.000  -0.000   0.000  -0.000   0.000   0.000
 -0.000   0.000  -0.000  -0.000  -0.000   0.000  -0.000   0.000   0.000   0.000  -0.000   0.000  -0.000  -0.000  -0.000   0.000
  0.000   0.000  -0.000   0.000   0.000  -0.000  -0.000   0.000  -0.000  -0.000   0.000  -0.000  -0.000  -0.000  -0.000   0.000
 -0.000  -0.000   0.000  -0.000  -0.000   0.000   0.000  -0.000   0.000   0.000  -0.000   0.000  -0.000  -0.000  -0.000   0.000
  0.000  -0.000   0.000   0.000   0.000  -0.000   0.000  -0.000  -0.000  -0.000   0.000   0.000   0.000   0.000   0.000  -0.000
 -0.000  -0.000   0.000   0.000  -0.000   0.000   0.000  -0.000  -0.000   0.000  -0.000   0.000  -0.000   0.000  -0.000   0.000
  0.000   0.000  -0.000   0.000   0.000  -0.000  -0.000  -0.000  -0.000  -0.000   0.000  -0.000   0.000   0.000   0.000   0.000


------------------------ aborting loop because EDIFF is reached ----------------------------------------


    CHARGE:  cpu time      0.0979: real time      0.0979
    FORLOC:  cpu time      0.0001: real time      0.0001
    FORNL :  cpu time      0.2940: real time      0.2941
    STRESS:  cpu time      1.9264: real time      1.9263
    FORCOR:  cpu time      0.0049: real time      0.0052
    FORHAR:  cpu time      0.0006: real time      0.0007
    MIXING:  cpu time      0.0006: real time      0.0006
    OFIELD:  cpu time      0.0000: real time      0.0001

  FORCE on cell =-STRESS in cart. coord.  units (eV):
  Direction    XX          YY          ZZ          XY          YZ          ZX
  --------------------------------------------------------------------------------------
  Alpha Z    92.66983    92.66983    92.66983
  Ewald    -753.28208  -753.28208  -717.72192    -0.00000     0.00000     0.00000
  Hartree   213.88881   213.88851   235.26378     0.00027     0.00000     0.00000
  E(xc)    -123.69435  -123.69437  -123.63425     0.00002    -0.00000    -0.00000
  Local      -7.82468    -7.82387   -64.85094    -0.00071    -0.00000    -0.00000
  n-local    76.19704    76.19693    76.50367     0.00010     0.00000     0.00000
  augment   200.98038   200.98043   200.92462    -0.00006    -0.00000    -0.00000
  Kinetic   300.69370   300.69412   300.42755    -0.00036    -0.00000    -0.00000
  Fock        0.00000     0.00000     0.00000     0.00000     0.00000     0.00000
  -------------------------------------------------------------------------------------
  Total      -0.37136    -0.37052    -0.41767    -0.00075    -0.00001    -0.00001
  in kB      -9.43495    -9.41354   -10.61143    -0.01894    -0.00014    -0.00014
  external pressure =       -9.82 kB  Pullay stress =        0.00 kB


 VOLUME and BASIS-vectors are now :
 -----------------------------------------------------------------------------
  energy-cutoff  :      308.17
  volume of cell :       63.06
      direct lattice vectors                 reciprocal lattice vectors
     3.592550000  0.000000000  0.000000000     0.278353816 -0.160707650  0.000000000
     1.796275000  3.111239564  0.000000000     0.000000000  0.321415301  0.000000000
     0.000000000  0.000000000  5.641950000    -0.000000000 -0.000000000  0.177243683

  length of vectors
     3.592550000  3.592550000  5.641950000     0.321415301  0.321415301  0.177243683


 FORCES acting on ions
    electron-ion (+dipol)            ewald-force                    non-local-force                 convergence-correction
 -----------------------------------------------------------------------------------------------
   -.147E-06 -.731E-06 -.294E-05   0.124E-11 0.717E-12 -.191E-13   -.228E-06 0.141E-05 0.124E-06   0.507E-05 0.212E-05 0.282E-05
   -.209E-05 -.561E-06 0.294E-05   -.125E-11 -.715E-12 0.191E-13   0.228E-06 -.141E-05 -.124E-06   -.507E-05 -.212E-05 -.282E-05
 -----------------------------------------------------------------------------------------------
   -.224E-05 -.129E-05 0.273E-11   -.338E-14 0.202E-14 -.416E-17   -.278E-20 -.212E-21 -.529E-22   -.224E-11 -.215E-11 -.278E-12
 
 
 POSITION                                       TOTAL-FORCE (eV/Angst)
 -----------------------------------------------------------------------------------
      0.00000      0.00000      0.00000         0.000006      0.000003      0.000000
      1.79628      1.03708      2.82097        -0.000006     -0.000003     -0.000000
 -----------------------------------------------------------------------------------
    total drift:                               -0.000002     -0.000001      0.000000


--------------------------------------------------------------------------------------------------------



  FREE ENERGIE OF THE ION-ELECTRON SYSTEM (eV)
  ---------------------------------------------------
  free  energy   TOTEN  =        -5.04466455 eV

  energy  without entropy=       -5.04308124  energy(sigma->0) =       -5.04387290
 


--------------------------------------------------------------------------------------------------------


    POTLOK:  cpu time      0.0124: real time      0.0124


--------------------------------------------------------------------------------------------------------


 writing wavefunctions
     LOOP+:  cpu time     51.2510: real time     51.3621
    4ORBIT:  cpu time      0.0000: real time      0.0000

 Spin-Orbit-Coupling matrix elements

 Ion:    1  E_soc:     -0.6138345
 l=   1
     0.0000000    -0.0539377    -0.0526744
    -0.0539377     0.0000000    -0.0539377
    -0.0526744    -0.0539377     0.0000000
 l=   2
     0.0000000    -0.0097425     0.0000000    -0.0097425    -0.0390635
    -0.0097425     0.0000000    -0.0292513    -0.0098317    -0.0097425
     0.0000000    -0.0292513     0.0000000    -0.0292511     0.0000000
    -0.0097425    -0.0098317    -0.0292511     0.0000000    -0.0097423
    -0.0390635    -0.0097425     0.0000000    -0.0097423     0.0000000
 l=   3
     0.0000000     0.0000000     0.0000000     0.0000000     0.0000000     0.0000000     0.0000000
     0.0000000     0.0000000     0.0000000     0.0000000     0.0000000     0.0000000     0.0000000
     0.0000000     0.0000000     0.0000000     0.0000000     0.0000000     0.0000000     0.0000000
     0.0000000     0.0000000     0.0000000     0.0000000     0.0000000     0.0000000     0.0000000
     0.0000000     0.0000000     0.0000000     0.0000000     0.0000000     0.0000000     0.0000000
     0.0000000     0.0000000     0.0000000     0.0000000     0.0000000     0.0000000     0.0000000
     0.0000000     0.0000000     0.0000000     0.0000000     0.0000000     0.0000000     0.0000000

 Ion:    2  E_soc:     -0.6138345
 l=   1
     0.0000000    -0.0539377    -0.0526744
    -0.0539377     0.0000000    -0.0539377
    -0.0526744    -0.0539377     0.0000000
 l=   2
     0.0000000    -0.0097425     0.0000000    -0.0097425    -0.0390635
    -0.0097425     0.0000000    -0.0292513    -0.0098317    -0.0097425
     0.0000000    -0.0292513     0.0000000    -0.0292511     0.0000000
    -0.0097425    -0.0098317    -0.0292511     0.0000000    -0.0097423
    -0.0390635    -0.0097425     0.0000000    -0.0097423     0.0000000
 l=   3
     0.0000000     0.0000000     0.0000000     0.0000000     0.0000000     0.0000000     0.0000000
     0.0000000     0.0000000     0.0000000     0.0000000     0.0000000     0.0000000     0.0000000
     0.0000000     0.0000000     0.0000000     0.0000000     0.0000000     0.0000000     0.0000000
     0.0000000     0.0000000     0.0000000     0.0000000     0.0000000     0.0000000     0.0000000
     0.0000000     0.0000000     0.0000000     0.0000000     0.0000000     0.0000000     0.0000000
     0.0000000     0.0000000     0.0000000     0.0000000     0.0000000     0.0000000     0.0000000
     0.0000000     0.0000000     0.0000000     0.0000000     0.0000000     0.0000000     0.0000000

 total amount of memory used by VASP MPI-rank0   157427. kBytes
=======================================================================

   base      :      30000. kBytes
   nonl-proj :     102019. kBytes
   fftplans  :        156. kBytes
   grid      :       1130. kBytes
   one-center:        124. kBytes
   wavefun   :      23998. kBytes
 
  
  
 General timing and accounting informations for this job:
 ========================================================
  
                  Total CPU time used (sec):       55.986
                            User time (sec):       54.715
                          System time (sec):        1.271
                         Elapsed time (sec):       56.468
  
                   Maximum memory used (kb):      544728.
                   Average memory used (kb):          N/A
  
                          Minor page faults:        33514
                          Major page faults:            0
                 Voluntary context switches:         4255
