 DBCSR| CPU Multiplication driver                                           BLAS (U)
 DBCSR| Multrec recursion limit                                              512 (U)
 DBCSR| Multiplication stack size                                           1000 (D)
 DBCSR| Maximum elements for images                                    UNLIMITED (U)
 DBCSR| Multiplicative factor virtual images                                   1 (U)
 DBCSR| Use multiplication densification                                       T (D)
 DBCSR| Multiplication size stacks                                             3 (U)
 DBCSR| Use memory pool for CPU allocation                                     F (U)
 DBCSR| Number of 3D layers                                               SINGLE (U)
 DBCSR| Use MPI memory allocation                                              F (U)
 DBCSR| Use RMA algorithm                                                      F (U)
 DBCSR| Use Communication thread                                               T (U)
 DBCSR| Communication thread load                                             45 (D)
 DBCSR| MPI: My process id                                                     0
 DBCSR| MPI: Number of processes                                               8
 DBCSR| OMP: Current number of threads                                        12
 DBCSR| OMP: Max number of threads                                            12
 DBCSR| Split modifier for TAS multiplication algorithm                  1.0E+00 (U)


  **** **** ******  **  PROGRAM STARTED AT               2025-08-07 23:32:38.315
 ***** ** ***  *** **   PROGRAM STARTED ON                          i01r03c06s11
 **    ****   ******    PROGRAM STARTED BY                               di38fab
 ***** **    ** ** **   PROGRAM PROCESS ID                               3442720
  **** **  *******  **  PROGRAM STARTED IN /hppfs/scratch/04/di38fab/09_GTH/Delt
                                           a_Set/Pb/aug-SZV-MOLOPT-GTH-tier-1/8x
                                           8x8

 CP2K| version string:                 CP2K version 2025.1 (Development Version)
 CP2K| source code revision number:                                  git:3130539
 CP2K| cp2kflags: omp libint fftw3 libxc parallel scalapack max_contr=4         
 CP2K| is freely available from                            https://www.cp2k.org/
 CP2K| Program compiled at                         Tue Jun  3 16:14:32 CEST 2025
 CP2K| Program compiled on                                               login01
 CP2K| Program compiled for                                        Supermuc-foss
 CP2K| Data directory path                  /hppfs/work/pn36zo/di38fab/cp2k/data
 CP2K| Input file name                                                    GW.inp

 GLOBAL| Force Environment number                                              1
 GLOBAL| Basis set file name            /hppfs/scratch/04/di38fab/09_GTH/BASIS_A
 GLOBAL| Potential file name            /hppfs/work/pn36zo/di38fab/cp2k/data/GTH
 GLOBAL| MM Potential file name                                     MM_POTENTIAL
 GLOBAL| Coordinate file name                                             Pb.cif
 GLOBAL| Method name                                                        CP2K
 GLOBAL| Project name                                                       WSe2
 GLOBAL| Run type                                                         ENERGY
 GLOBAL| FFT library                                                       FFTW3
 GLOBAL| Diagonalization library                                       ScaLAPACK
 GLOBAL| Cholesky decomposition library                                ScaLAPACK
 GLOBAL| DGEMM library                                                      BLAS
 GLOBAL| Orthonormality check for eigenvectors                          DISABLED
 GLOBAL| Matrix multiplication library                                 ScaLAPACK
 GLOBAL| All-to-all communication in single precision                          F
 GLOBAL| FFTs using library dependent lengths                                  F
 GLOBAL| Grid backend                                                       AUTO
 GLOBAL| Global print level                                               MEDIUM
 GLOBAL| MPI I/O enabled                                                       T
 GLOBAL| Total number of message passing processes                             8
 GLOBAL| Number of threads for this process                                   12
 GLOBAL| This output is from process                                           0
 GLOBAL| OpenMP stack size per thread (OMP_STACKSIZE)                    default
 GLOBAL| CPU model name             Intel(R) Xeon(R) Platinum 8174 CPU @ 3.10GHz

 MEMORY| system memory details [Kb]
 MEMORY|                        rank 0           min           max       average
 MEMORY| MemTotal             98436660      98436620      98436660      98436640
 MEMORY| MemFree              85661056      85578564      85661056      85619810
 MEMORY| Buffers                     0             0             0             0
 MEMORY| Cached                2382272       2382272       2383268       2382770
 MEMORY| Slab                  1165216       1161436       1165216       1163326
 MEMORY| SReclaimable           259708        257036        259708        258372
 MEMORY| MemLikelyFree        88303036      88218868      88303036      88260952


 *** Fundamental physical constants (SI units) ***

 *** Literature: B. J. Mohr and B. N. Taylor,
 ***             CODATA recommended values of the fundamental physical
 ***             constants: 2006, Web Version 5.1
 ***             http://physics.nist.gov/constants

 Speed of light in vacuum [m/s]                             2.99792458000000E+08
 Magnetic constant or permeability of vacuum [N/A**2]       1.25663706143592E-06
 Electric constant or permittivity of vacuum [F/m]          8.85418781762039E-12
 Planck constant (h) [J*s]                                  6.62606896000000E-34
 Planck constant (h-bar) [J*s]                              1.05457162825177E-34
 Elementary charge [C]                                      1.60217648700000E-19
 Electron mass [kg]                                         9.10938215000000E-31
 Electron g factor [ ]                                     -2.00231930436220E+00
 Proton mass [kg]                                           1.67262163700000E-27
 Fine-structure constant                                    7.29735253760000E-03
 Rydberg constant [1/m]                                     1.09737315685270E+07
 Avogadro constant [1/mol]                                  6.02214179000000E+23
 Boltzmann constant [J/K]                                   1.38065040000000E-23
 Atomic mass unit [kg]                                      1.66053878200000E-27
 Bohr radius [m]                                            5.29177208590000E-11

 *** Conversion factors ***

 [u] -> [a.u.]                                              1.82288848426455E+03
 [Angstrom] -> [Bohr] = [a.u.]                              1.88972613288564E+00
 [a.u.] = [Bohr] -> [Angstrom]                              5.29177208590000E-01
 [a.u.] -> [s]                                              2.41888432650478E-17
 [a.u.] -> [fs]                                             2.41888432650478E-02
 [a.u.] -> [J]                                              4.35974393937059E-18
 [a.u.] -> [N]                                              8.23872205491840E-08
 [a.u.] -> [K]                                              3.15774647902944E+05
 [a.u.] -> [kJ/mol]                                         2.62549961709828E+03
 [a.u.] -> [kcal/mol]                                       6.27509468713739E+02
 [a.u.] -> [Pa]                                             2.94210107994716E+13
 [a.u.] -> [bar]                                            2.94210107994716E+08
 [a.u.] -> [atm]                                            2.90362800883016E+08
 [a.u.] -> [eV]                                             2.72113838565563E+01
 [a.u.] -> [Hz]                                             6.57968392072181E+15
 [a.u.] -> [1/cm] (wave numbers)                            2.19474631370540E+05
 [a.u./Bohr**2] -> [1/cm]                                   5.14048714338585E+03
 

 CELL_TOP| Volume [angstrom^3]:                                       128.318440
 CELL_TOP| Vector a [angstrom     5.044     0.000     0.000   |a| =     5.043860
 CELL_TOP| Vector b [angstrom     0.000     5.044     0.000   |b| =     5.043860
 CELL_TOP| Vector c [angstrom     0.000     0.000     5.044   |c| =     5.043860
 CELL_TOP| Angle (b,c), alpha [degree]:                                90.000000
 CELL_TOP| Angle (a,c), beta  [degree]:                                90.000000
 CELL_TOP| Angle (a,b), gamma [degree]:                                90.000000
 CELL_TOP| Numerically orthorhombic:                                         YES
 CELL_TOP| Periodicity                                                       XYZ

 CELL_CIF| Volume [angstrom^3]:                                       128.318440
 CELL_CIF| Vector a [angstrom     5.044     0.000     0.000   |a| =     5.043860
 CELL_CIF| Vector b [angstrom     0.000     5.044     0.000   |b| =     5.043860
 CELL_CIF| Vector c [angstrom     0.000     0.000     5.044   |c| =     5.043860
 CELL_CIF| Angle (b,c), alpha [degree]:                                90.000000
 CELL_CIF| Angle (a,c), beta  [degree]:                                90.000000
 CELL_CIF| Angle (a,b), gamma [degree]:                                90.000000
 CELL_CIF| Numerically orthorhombic:                                         YES
 CELL_CIF| Periodicity                                                       XYZ

 GENERATE|  Preliminary Number of Bonds generated:                             0
 GENERATE|  Achieved consistency in connectivity generation.

 CELL| Volume [angstrom^3]:                                           128.318440
 CELL| Vector a [angstrom]:       5.044     0.000     0.000   |a| =     5.043860
 CELL| Vector b [angstrom]:       0.000     5.044     0.000   |b| =     5.043860
 CELL| Vector c [angstrom]:       0.000     0.000     5.044   |c| =     5.043860
 CELL| Angle (b,c), alpha [degree]:                                    90.000000
 CELL| Angle (a,c), beta  [degree]:                                    90.000000
 CELL| Angle (a,b), gamma [degree]:                                    90.000000
 CELL| Numerically orthorhombic:                                             YES
 CELL| Periodicity                                                           XYZ

 CELL_REF| Volume [angstrom^3]:                                       128.318440
 CELL_REF| Vector a [angstrom     5.044     0.000     0.000   |a| =     5.043860
 CELL_REF| Vector b [angstrom     0.000     5.044     0.000   |b| =     5.043860
 CELL_REF| Vector c [angstrom     0.000     0.000     5.044   |c| =     5.043860
 CELL_REF| Angle (b,c), alpha [degree]:                                90.000000
 CELL_REF| Angle (a,c), beta  [degree]:                                90.000000
 CELL_REF| Angle (a,b), gamma [degree]:                                90.000000
 CELL_REF| Numerically orthorhombic:                                         YES
 CELL_REF| Periodicity                                                       XYZ

 *** WARNING in cryssym.F:180 :: Symmetry library SPGLIB not available ***


 *******************************************************************************
                                    Kpoints
 *******************************************************************************
 BRILLOUIN| K-point scheme                                        Monkhorst-Pack
 BRILLOUIN| K-Point grid                                             8    8    8
 BRILLOUIN| Accuracy in Symmetry determination                      0.100000E-05
 BRILLOUIN| K-Point point group symmetrization                               OFF
 BRILLOUIN| Wavefunction type                                            COMPLEX
 BRILLOUIN| List of Kpoints [2 Pi/Bohr]                                      256
 BRILLOUIN| Number           Weight            X              Y              Z
 BRILLOUIN|     1           0.00391       -0.43750       -0.43750       -0.43750
 BRILLOUIN|     2           0.00391       -0.43750       -0.43750       -0.31250
 BRILLOUIN|     3           0.00391       -0.43750       -0.43750       -0.18750
 BRILLOUIN|     4           0.00391       -0.43750       -0.43750       -0.06250
 BRILLOUIN|     5           0.00391       -0.43750       -0.43750        0.06250
 BRILLOUIN|     6           0.00391       -0.43750       -0.43750        0.18750
 BRILLOUIN|     7           0.00391       -0.43750       -0.43750        0.31250
 BRILLOUIN|     8           0.00391       -0.43750       -0.43750        0.43750
 BRILLOUIN|     9           0.00391       -0.43750       -0.31250       -0.43750
 BRILLOUIN|    10           0.00391       -0.43750       -0.31250       -0.31250
 BRILLOUIN|    11           0.00391       -0.43750       -0.31250       -0.18750
 BRILLOUIN|    12           0.00391       -0.43750       -0.31250       -0.06250
 BRILLOUIN|    13           0.00391       -0.43750       -0.31250        0.06250
 BRILLOUIN|    14           0.00391       -0.43750       -0.31250        0.18750
 BRILLOUIN|    15           0.00391       -0.43750       -0.31250        0.31250
 BRILLOUIN|    16           0.00391       -0.43750       -0.31250        0.43750
 BRILLOUIN|    17           0.00391       -0.43750       -0.18750       -0.43750
 BRILLOUIN|    18           0.00391       -0.43750       -0.18750       -0.31250
 BRILLOUIN|    19           0.00391       -0.43750       -0.18750       -0.18750
 BRILLOUIN|    20           0.00391       -0.43750       -0.18750       -0.06250
 BRILLOUIN|    21           0.00391       -0.43750       -0.18750        0.06250
 BRILLOUIN|    22           0.00391       -0.43750       -0.18750        0.18750
 BRILLOUIN|    23           0.00391       -0.43750       -0.18750        0.31250
 BRILLOUIN|    24           0.00391       -0.43750       -0.18750        0.43750
 BRILLOUIN|    25           0.00391       -0.43750       -0.06250       -0.43750
 BRILLOUIN|    26           0.00391       -0.43750       -0.06250       -0.31250
 BRILLOUIN|    27           0.00391       -0.43750       -0.06250       -0.18750
 BRILLOUIN|    28           0.00391       -0.43750       -0.06250       -0.06250
 BRILLOUIN|    29           0.00391       -0.43750       -0.06250        0.06250
 BRILLOUIN|    30           0.00391       -0.43750       -0.06250        0.18750
 BRILLOUIN|    31           0.00391       -0.43750       -0.06250        0.31250
 BRILLOUIN|    32           0.00391       -0.43750       -0.06250        0.43750
 BRILLOUIN|    33           0.00391       -0.43750        0.06250       -0.43750
 BRILLOUIN|    34           0.00391       -0.43750        0.06250       -0.31250
 BRILLOUIN|    35           0.00391       -0.43750        0.06250       -0.18750
 BRILLOUIN|    36           0.00391       -0.43750        0.06250       -0.06250
 BRILLOUIN|    37           0.00391       -0.43750        0.06250        0.06250
 BRILLOUIN|    38           0.00391       -0.43750        0.06250        0.18750
 BRILLOUIN|    39           0.00391       -0.43750        0.06250        0.31250
 BRILLOUIN|    40           0.00391       -0.43750        0.06250        0.43750
 BRILLOUIN|    41           0.00391       -0.43750        0.18750       -0.43750
 BRILLOUIN|    42           0.00391       -0.43750        0.18750       -0.31250
 BRILLOUIN|    43           0.00391       -0.43750        0.18750       -0.18750
 BRILLOUIN|    44           0.00391       -0.43750        0.18750       -0.06250
 BRILLOUIN|    45           0.00391       -0.43750        0.18750        0.06250
 BRILLOUIN|    46           0.00391       -0.43750        0.18750        0.18750
 BRILLOUIN|    47           0.00391       -0.43750        0.18750        0.31250
 BRILLOUIN|    48           0.00391       -0.43750        0.18750        0.43750
 BRILLOUIN|    49           0.00391       -0.43750        0.31250       -0.43750
 BRILLOUIN|    50           0.00391       -0.43750        0.31250       -0.31250
 BRILLOUIN|    51           0.00391       -0.43750        0.31250       -0.18750
 BRILLOUIN|    52           0.00391       -0.43750        0.31250       -0.06250
 BRILLOUIN|    53           0.00391       -0.43750        0.31250        0.06250
 BRILLOUIN|    54           0.00391       -0.43750        0.31250        0.18750
 BRILLOUIN|    55           0.00391       -0.43750        0.31250        0.31250
 BRILLOUIN|    56           0.00391       -0.43750        0.31250        0.43750
 BRILLOUIN|    57           0.00391       -0.43750        0.43750       -0.43750
 BRILLOUIN|    58           0.00391       -0.43750        0.43750       -0.31250
 BRILLOUIN|    59           0.00391       -0.43750        0.43750       -0.18750
 BRILLOUIN|    60           0.00391       -0.43750        0.43750       -0.06250
 BRILLOUIN|    61           0.00391       -0.43750        0.43750        0.06250
 BRILLOUIN|    62           0.00391       -0.43750        0.43750        0.18750
 BRILLOUIN|    63           0.00391       -0.43750        0.43750        0.31250
 BRILLOUIN|    64           0.00391       -0.43750        0.43750        0.43750
 BRILLOUIN|    65           0.00391       -0.31250       -0.43750       -0.43750
 BRILLOUIN|    66           0.00391       -0.31250       -0.43750       -0.31250
 BRILLOUIN|    67           0.00391       -0.31250       -0.43750       -0.18750
 BRILLOUIN|    68           0.00391       -0.31250       -0.43750       -0.06250
 BRILLOUIN|    69           0.00391       -0.31250       -0.43750        0.06250
 BRILLOUIN|    70           0.00391       -0.31250       -0.43750        0.18750
 BRILLOUIN|    71           0.00391       -0.31250       -0.43750        0.31250
 BRILLOUIN|    72           0.00391       -0.31250       -0.43750        0.43750
 BRILLOUIN|    73           0.00391       -0.31250       -0.31250       -0.43750
 BRILLOUIN|    74           0.00391       -0.31250       -0.31250       -0.31250
 BRILLOUIN|    75           0.00391       -0.31250       -0.31250       -0.18750
 BRILLOUIN|    76           0.00391       -0.31250       -0.31250       -0.06250
 BRILLOUIN|    77           0.00391       -0.31250       -0.31250        0.06250
 BRILLOUIN|    78           0.00391       -0.31250       -0.31250        0.18750
 BRILLOUIN|    79           0.00391       -0.31250       -0.31250        0.31250
 BRILLOUIN|    80           0.00391       -0.31250       -0.31250        0.43750
 BRILLOUIN|    81           0.00391       -0.31250       -0.18750       -0.43750
 BRILLOUIN|    82           0.00391       -0.31250       -0.18750       -0.31250
 BRILLOUIN|    83           0.00391       -0.31250       -0.18750       -0.18750
 BRILLOUIN|    84           0.00391       -0.31250       -0.18750       -0.06250
 BRILLOUIN|    85           0.00391       -0.31250       -0.18750        0.06250
 BRILLOUIN|    86           0.00391       -0.31250       -0.18750        0.18750
 BRILLOUIN|    87           0.00391       -0.31250       -0.18750        0.31250
 BRILLOUIN|    88           0.00391       -0.31250       -0.18750        0.43750
 BRILLOUIN|    89           0.00391       -0.31250       -0.06250       -0.43750
 BRILLOUIN|    90           0.00391       -0.31250       -0.06250       -0.31250
 BRILLOUIN|    91           0.00391       -0.31250       -0.06250       -0.18750
 BRILLOUIN|    92           0.00391       -0.31250       -0.06250       -0.06250
 BRILLOUIN|    93           0.00391       -0.31250       -0.06250        0.06250
 BRILLOUIN|    94           0.00391       -0.31250       -0.06250        0.18750
 BRILLOUIN|    95           0.00391       -0.31250       -0.06250        0.31250
 BRILLOUIN|    96           0.00391       -0.31250       -0.06250        0.43750
 BRILLOUIN|    97           0.00391       -0.31250        0.06250       -0.43750
 BRILLOUIN|    98           0.00391       -0.31250        0.06250       -0.31250
 BRILLOUIN|    99           0.00391       -0.31250        0.06250       -0.18750
 BRILLOUIN|   100           0.00391       -0.31250        0.06250       -0.06250
 BRILLOUIN|   101           0.00391       -0.31250        0.06250        0.06250
 BRILLOUIN|   102           0.00391       -0.31250        0.06250        0.18750
 BRILLOUIN|   103           0.00391       -0.31250        0.06250        0.31250
 BRILLOUIN|   104           0.00391       -0.31250        0.06250        0.43750
 BRILLOUIN|   105           0.00391       -0.31250        0.18750       -0.43750
 BRILLOUIN|   106           0.00391       -0.31250        0.18750       -0.31250
 BRILLOUIN|   107           0.00391       -0.31250        0.18750       -0.18750
 BRILLOUIN|   108           0.00391       -0.31250        0.18750       -0.06250
 BRILLOUIN|   109           0.00391       -0.31250        0.18750        0.06250
 BRILLOUIN|   110           0.00391       -0.31250        0.18750        0.18750
 BRILLOUIN|   111           0.00391       -0.31250        0.18750        0.31250
 BRILLOUIN|   112           0.00391       -0.31250        0.18750        0.43750
 BRILLOUIN|   113           0.00391       -0.31250        0.31250       -0.43750
 BRILLOUIN|   114           0.00391       -0.31250        0.31250       -0.31250
 BRILLOUIN|   115           0.00391       -0.31250        0.31250       -0.18750
 BRILLOUIN|   116           0.00391       -0.31250        0.31250       -0.06250
 BRILLOUIN|   117           0.00391       -0.31250        0.31250        0.06250
 BRILLOUIN|   118           0.00391       -0.31250        0.31250        0.18750
 BRILLOUIN|   119           0.00391       -0.31250        0.31250        0.31250
 BRILLOUIN|   120           0.00391       -0.31250        0.31250        0.43750
 BRILLOUIN|   121           0.00391       -0.31250        0.43750       -0.43750
 BRILLOUIN|   122           0.00391       -0.31250        0.43750       -0.31250
 BRILLOUIN|   123           0.00391       -0.31250        0.43750       -0.18750
 BRILLOUIN|   124           0.00391       -0.31250        0.43750       -0.06250
 BRILLOUIN|   125           0.00391       -0.31250        0.43750        0.06250
 BRILLOUIN|   126           0.00391       -0.31250        0.43750        0.18750
 BRILLOUIN|   127           0.00391       -0.31250        0.43750        0.31250
 BRILLOUIN|   128           0.00391       -0.31250        0.43750        0.43750
 BRILLOUIN|   129           0.00391       -0.18750       -0.43750       -0.43750
 BRILLOUIN|   130           0.00391       -0.18750       -0.43750       -0.31250
 BRILLOUIN|   131           0.00391       -0.18750       -0.43750       -0.18750
 BRILLOUIN|   132           0.00391       -0.18750       -0.43750       -0.06250
 BRILLOUIN|   133           0.00391       -0.18750       -0.43750        0.06250
 BRILLOUIN|   134           0.00391       -0.18750       -0.43750        0.18750
 BRILLOUIN|   135           0.00391       -0.18750       -0.43750        0.31250
 BRILLOUIN|   136           0.00391       -0.18750       -0.43750        0.43750
 BRILLOUIN|   137           0.00391       -0.18750       -0.31250       -0.43750
 BRILLOUIN|   138           0.00391       -0.18750       -0.31250       -0.31250
 BRILLOUIN|   139           0.00391       -0.18750       -0.31250       -0.18750
 BRILLOUIN|   140           0.00391       -0.18750       -0.31250       -0.06250
 BRILLOUIN|   141           0.00391       -0.18750       -0.31250        0.06250
 BRILLOUIN|   142           0.00391       -0.18750       -0.31250        0.18750
 BRILLOUIN|   143           0.00391       -0.18750       -0.31250        0.31250
 BRILLOUIN|   144           0.00391       -0.18750       -0.31250        0.43750
 BRILLOUIN|   145           0.00391       -0.18750       -0.18750       -0.43750
 BRILLOUIN|   146           0.00391       -0.18750       -0.18750       -0.31250
 BRILLOUIN|   147           0.00391       -0.18750       -0.18750       -0.18750
 BRILLOUIN|   148           0.00391       -0.18750       -0.18750       -0.06250
 BRILLOUIN|   149           0.00391       -0.18750       -0.18750        0.06250
 BRILLOUIN|   150           0.00391       -0.18750       -0.18750        0.18750
 BRILLOUIN|   151           0.00391       -0.18750       -0.18750        0.31250
 BRILLOUIN|   152           0.00391       -0.18750       -0.18750        0.43750
 BRILLOUIN|   153           0.00391       -0.18750       -0.06250       -0.43750
 BRILLOUIN|   154           0.00391       -0.18750       -0.06250       -0.31250
 BRILLOUIN|   155           0.00391       -0.18750       -0.06250       -0.18750
 BRILLOUIN|   156           0.00391       -0.18750       -0.06250       -0.06250
 BRILLOUIN|   157           0.00391       -0.18750       -0.06250        0.06250
 BRILLOUIN|   158           0.00391       -0.18750       -0.06250        0.18750
 BRILLOUIN|   159           0.00391       -0.18750       -0.06250        0.31250
 BRILLOUIN|   160           0.00391       -0.18750       -0.06250        0.43750
 BRILLOUIN|   161           0.00391       -0.18750        0.06250       -0.43750
 BRILLOUIN|   162           0.00391       -0.18750        0.06250       -0.31250
 BRILLOUIN|   163           0.00391       -0.18750        0.06250       -0.18750
 BRILLOUIN|   164           0.00391       -0.18750        0.06250       -0.06250
 BRILLOUIN|   165           0.00391       -0.18750        0.06250        0.06250
 BRILLOUIN|   166           0.00391       -0.18750        0.06250        0.18750
 BRILLOUIN|   167           0.00391       -0.18750        0.06250        0.31250
 BRILLOUIN|   168           0.00391       -0.18750        0.06250        0.43750
 BRILLOUIN|   169           0.00391       -0.18750        0.18750       -0.43750
 BRILLOUIN|   170           0.00391       -0.18750        0.18750       -0.31250
 BRILLOUIN|   171           0.00391       -0.18750        0.18750       -0.18750
 BRILLOUIN|   172           0.00391       -0.18750        0.18750       -0.06250
 BRILLOUIN|   173           0.00391       -0.18750        0.18750        0.06250
 BRILLOUIN|   174           0.00391       -0.18750        0.18750        0.18750
 BRILLOUIN|   175           0.00391       -0.18750        0.18750        0.31250
 BRILLOUIN|   176           0.00391       -0.18750        0.18750        0.43750
 BRILLOUIN|   177           0.00391       -0.18750        0.31250       -0.43750
 BRILLOUIN|   178           0.00391       -0.18750        0.31250       -0.31250
 BRILLOUIN|   179           0.00391       -0.18750        0.31250       -0.18750
 BRILLOUIN|   180           0.00391       -0.18750        0.31250       -0.06250
 BRILLOUIN|   181           0.00391       -0.18750        0.31250        0.06250
 BRILLOUIN|   182           0.00391       -0.18750        0.31250        0.18750
 BRILLOUIN|   183           0.00391       -0.18750        0.31250        0.31250
 BRILLOUIN|   184           0.00391       -0.18750        0.31250        0.43750
 BRILLOUIN|   185           0.00391       -0.18750        0.43750       -0.43750
 BRILLOUIN|   186           0.00391       -0.18750        0.43750       -0.31250
 BRILLOUIN|   187           0.00391       -0.18750        0.43750       -0.18750
 BRILLOUIN|   188           0.00391       -0.18750        0.43750       -0.06250
 BRILLOUIN|   189           0.00391       -0.18750        0.43750        0.06250
 BRILLOUIN|   190           0.00391       -0.18750        0.43750        0.18750
 BRILLOUIN|   191           0.00391       -0.18750        0.43750        0.31250
 BRILLOUIN|   192           0.00391       -0.18750        0.43750        0.43750
 BRILLOUIN|   193           0.00391       -0.06250       -0.43750       -0.43750
 BRILLOUIN|   194           0.00391       -0.06250       -0.43750       -0.31250
 BRILLOUIN|   195           0.00391       -0.06250       -0.43750       -0.18750
 BRILLOUIN|   196           0.00391       -0.06250       -0.43750       -0.06250
 BRILLOUIN|   197           0.00391       -0.06250       -0.43750        0.06250
 BRILLOUIN|   198           0.00391       -0.06250       -0.43750        0.18750
 BRILLOUIN|   199           0.00391       -0.06250       -0.43750        0.31250
 BRILLOUIN|   200           0.00391       -0.06250       -0.43750        0.43750
 BRILLOUIN|   201           0.00391       -0.06250       -0.31250       -0.43750
 BRILLOUIN|   202           0.00391       -0.06250       -0.31250       -0.31250
 BRILLOUIN|   203           0.00391       -0.06250       -0.31250       -0.18750
 BRILLOUIN|   204           0.00391       -0.06250       -0.31250       -0.06250
 BRILLOUIN|   205           0.00391       -0.06250       -0.31250        0.06250
 BRILLOUIN|   206           0.00391       -0.06250       -0.31250        0.18750
 BRILLOUIN|   207           0.00391       -0.06250       -0.31250        0.31250
 BRILLOUIN|   208           0.00391       -0.06250       -0.31250        0.43750
 BRILLOUIN|   209           0.00391       -0.06250       -0.18750       -0.43750
 BRILLOUIN|   210           0.00391       -0.06250       -0.18750       -0.31250
 BRILLOUIN|   211           0.00391       -0.06250       -0.18750       -0.18750
 BRILLOUIN|   212           0.00391       -0.06250       -0.18750       -0.06250
 BRILLOUIN|   213           0.00391       -0.06250       -0.18750        0.06250
 BRILLOUIN|   214           0.00391       -0.06250       -0.18750        0.18750
 BRILLOUIN|   215           0.00391       -0.06250       -0.18750        0.31250
 BRILLOUIN|   216           0.00391       -0.06250       -0.18750        0.43750
 BRILLOUIN|   217           0.00391       -0.06250       -0.06250       -0.43750
 BRILLOUIN|   218           0.00391       -0.06250       -0.06250       -0.31250
 BRILLOUIN|   219           0.00391       -0.06250       -0.06250       -0.18750
 BRILLOUIN|   220           0.00391       -0.06250       -0.06250       -0.06250
 BRILLOUIN|   221           0.00391       -0.06250       -0.06250        0.06250
 BRILLOUIN|   222           0.00391       -0.06250       -0.06250        0.18750
 BRILLOUIN|   223           0.00391       -0.06250       -0.06250        0.31250
 BRILLOUIN|   224           0.00391       -0.06250       -0.06250        0.43750
 BRILLOUIN|   225           0.00391       -0.06250        0.06250       -0.43750
 BRILLOUIN|   226           0.00391       -0.06250        0.06250       -0.31250
 BRILLOUIN|   227           0.00391       -0.06250        0.06250       -0.18750
 BRILLOUIN|   228           0.00391       -0.06250        0.06250       -0.06250
 BRILLOUIN|   229           0.00391       -0.06250        0.06250        0.06250
 BRILLOUIN|   230           0.00391       -0.06250        0.06250        0.18750
 BRILLOUIN|   231           0.00391       -0.06250        0.06250        0.31250
 BRILLOUIN|   232           0.00391       -0.06250        0.06250        0.43750
 BRILLOUIN|   233           0.00391       -0.06250        0.18750       -0.43750
 BRILLOUIN|   234           0.00391       -0.06250        0.18750       -0.31250
 BRILLOUIN|   235           0.00391       -0.06250        0.18750       -0.18750
 BRILLOUIN|   236           0.00391       -0.06250        0.18750       -0.06250
 BRILLOUIN|   237           0.00391       -0.06250        0.18750        0.06250
 BRILLOUIN|   238           0.00391       -0.06250        0.18750        0.18750
 BRILLOUIN|   239           0.00391       -0.06250        0.18750        0.31250
 BRILLOUIN|   240           0.00391       -0.06250        0.18750        0.43750
 BRILLOUIN|   241           0.00391       -0.06250        0.31250       -0.43750
 BRILLOUIN|   242           0.00391       -0.06250        0.31250       -0.31250
 BRILLOUIN|   243           0.00391       -0.06250        0.31250       -0.18750
 BRILLOUIN|   244           0.00391       -0.06250        0.31250       -0.06250
 BRILLOUIN|   245           0.00391       -0.06250        0.31250        0.06250
 BRILLOUIN|   246           0.00391       -0.06250        0.31250        0.18750
 BRILLOUIN|   247           0.00391       -0.06250        0.31250        0.31250
 BRILLOUIN|   248           0.00391       -0.06250        0.31250        0.43750
 BRILLOUIN|   249           0.00391       -0.06250        0.43750       -0.43750
 BRILLOUIN|   250           0.00391       -0.06250        0.43750       -0.31250
 BRILLOUIN|   251           0.00391       -0.06250        0.43750       -0.18750
 BRILLOUIN|   252           0.00391       -0.06250        0.43750       -0.06250
 BRILLOUIN|   253           0.00391       -0.06250        0.43750        0.06250
 BRILLOUIN|   254           0.00391       -0.06250        0.43750        0.18750
 BRILLOUIN|   255           0.00391       -0.06250        0.43750        0.31250
 BRILLOUIN|   256           0.00391       -0.06250        0.43750        0.43750
 *******************************************************************************

 *******************************************************************************
 *******************************************************************************
 **                                                                           **
 **     #####                         ##              ##                      **
 **    ##   ##            ##          ##              ##                      **
 **   ##     ##                       ##            ######                    **
 **   ##     ##  ##   ##  ##   #####  ##  ##   ####   ##    #####    #####    **
 **   ##     ##  ##   ##  ##  ##      ## ##   ##      ##   ##   ##  ##   ##   **
 **   ##  ## ##  ##   ##  ##  ##      ####     ###    ##   ######   ######    **
 **    ##  ###   ##   ##  ##  ##      ## ##      ##   ##   ##       ##        **
 **     #######   #####   ##   #####  ##  ##  ####    ##    #####   ##        **
 **           ##                                                    ##        **
 **                                                                           **
 **                                                ... make the atoms dance   **
 **                                                                           **
 **            Copyright (C) by CP2K developers group (2000-2025)             **
 **                      J. Chem. Phys. 152, 194103 (2020)                    **
 **                                                                           **
 *******************************************************************************

 DFT| Spin restricted Kohn-Sham (RKS) calculation                            RKS
 DFT| Multiplicity                                                             1
 DFT| Number of spin states                                                    1
 DFT| Charge                                                                   0
 DFT| Self-interaction correction (SIC)                                       NO
 DFT| Cutoffs: density                                              1.000000E-10
 DFT|          gradient                                             1.000000E-10
 DFT|          tau                                                  1.000000E-10
 DFT|          cutoff_smoothing_range                               0.000000E+00
 DFT| XC density smoothing                                                  NONE
 DFT| XC derivatives                                                          PW

 FUNCTIONAL| PBE:
 FUNCTIONAL| J.P.Perdew, K.Burke, M.Ernzerhof, Phys. Rev. Letter, vol. 77, n 18,
 FUNCTIONAL|  pp. 3865-3868, (1996) {spin unpolarized}                          


 QS| Method:                                                                 GPW
 QS| Density plane wave grid type                        NON-SPHERICAL FULLSPACE
 QS| Number of grid levels:                                                    4
 QS| Density cutoff [a.u.]:                                                500.0
 QS| Multi grid cutoff [a.u.]: 1) grid level                               500.0
 QS|                           2) grid level                               166.7
 QS|                           3) grid level                                55.6
 QS|                           4) grid level                                18.5
 QS| Grid level progression factor:                                          3.0
 QS| Relative density cutoff [a.u.]:                                        50.0
 QS| Interaction thresholds: eps_pgf_orb:                                1.0E-16
 QS|                         eps_filter_matrix:                          0.0E+00
 QS|                         eps_core_charge:                            1.0E-18
 QS|                         eps_rho_gspace:                             1.0E-16
 QS|                         eps_rho_rspace:                             1.0E-16
 QS|                         eps_gvg_rspace:                             1.0E-08
 QS|                         eps_ppl:                                    1.0E-02
 QS|                         eps_ppnl:                                   1.0E-10


 ATOMIC KIND INFORMATION

  1. Atomic kind: Pb                                    Number of atoms:       4

     Orbital Basis Set                                 aug-SZV-MOLOPT-GTH-tier-1

       Number of orbital shell sets:                                           1
       Number of orbital shells:                                               4
       Number of primitive Cartesian functions:                                6
       Number of Cartesian basis functions:                                    8
       Number of spherical basis functions:                                    8
       Norm type:                                                              2

       Normalised Cartesian orbitals:

                        Set   Shell   Orbital            Exponent    Coefficient

                          1       1    2s                0.073968      -0.008640
                                                         0.075840       0.000000
                                                         0.077759      -0.022545
                                                         0.222223      -0.230246
                                                         0.981425       0.419979
                                                         1.933598      -0.156134

                          1       2    3s                0.073968       0.326661
                                                         0.075840      -0.029458
                                                         0.077759      -0.215263
                                                         0.222223       0.033625
                                                         0.981425      -0.025650
                                                         1.933598       0.000000

                          1       3    3px               0.073968       0.009435
                                                         0.075840       0.000000
                                                         0.077759       0.018505
                                                         0.222223       0.142297
                                                         0.981425      -0.243155
                                                         1.933598       0.064607
                          1       3    3py               0.073968       0.009435
                                                         0.075840       0.000000
                                                         0.077759       0.018505
                                                         0.222223       0.142297
                                                         0.981425      -0.243155
                                                         1.933598       0.064607
                          1       3    3pz               0.073968       0.009435
                                                         0.075840       0.000000
                                                         0.077759       0.018505
                                                         0.222223       0.142297
                                                         0.981425      -0.243155
                                                         1.933598       0.064607

                          1       4    4px               0.073968       0.681298
                                                         0.075840      -0.648825
                                                         0.077759       0.001086
                                                         0.222223      -0.000951
                                                         0.981425       0.025816
                                                         1.933598       0.000000
                          1       4    4py               0.073968       0.681298
                                                         0.075840      -0.648825
                                                         0.077759       0.001086
                                                         0.222223      -0.000951
                                                         0.981425       0.025816
                                                         1.933598       0.000000
                          1       4    4pz               0.073968       0.681298
                                                         0.075840      -0.648825
                                                         0.077759       0.001086
                                                         0.222223      -0.000951
                                                         0.981425       0.025816
                                                         1.933598       0.000000

       Atomic covalent radius [Angstrom]:                                  1.470

       Atomic van der Waals radius [Angstrom]:                             2.020

     GTH Potential information for                                       GTH-PBE

       Description:                       Goedecker-Teter-Hutter pseudopotential
                                           Goedecker et al., PRB 54, 1703 (1996)
                                          Hartwigsen et al., PRB 58, 3641 (1998)
                                                      Krack, TCA 114, 145 (2005)

       Gaussian exponent of the core charge distribution:               1.311282
       Electronic configuration (s p d ...):                               2   2

       Parameters of the local part of the GTH pseudopotential:

                          rloc        C1          C2          C3          C4
                        0.617500    4.672384

       Parameters of the non-local part of the GTH (SOC) pseudopotential:

                   l      r(l)      h(i,j,l)
                                    k(i,j,l)
                   0    0.622359    0.879918    2.081148   -1.431257
                                    2.081148   -5.014690    3.695490
                                   -1.431257    3.695490   -2.933204
                   1    0.812002    0.153457    0.478898
                                    0.478898   -0.566640
                                    0.274670   -0.023058
                                   -0.023058    0.027283
                   2    1.025015    0.301702
                                    0.018703


 MOLECULE KIND INFORMATION


 All atoms are their own molecule, skipping detailed information


 TOTAL NUMBERS AND MAXIMUM NUMBERS

  Total number of            - Atomic kinds:                                   1
                             - Atoms:                                          4
                             - Shell sets:                                     4
                             - Shells:                                        16
                             - Primitive Cartesian functions:                 24
                             - Cartesian basis functions:                     32
                             - Spherical basis functions:                     32

  Maximum angular momentum of- Orbital basis functions:                        1
                             - Local part of the GTH pseudopotential:          0
                             - Non-local part of the GTH pseudopotential:      4


 MODULE QUICKSTEP: ATOMIC COORDINATES IN ANGSTROM

   Atom Kind Element         X             Y             Z       Z(eff)     Mass
      1    1 Pb   82      0.000000      0.000000      0.000000   4.0000 207.2000
      2    1 Pb   82      0.000000      2.521930      2.521930   4.0000 207.2000
      3    1 Pb   82      2.521930      0.000000      2.521930   4.0000 207.2000
      4    1 Pb   82      2.521930      2.521930      0.000000   4.0000 207.2000



 SCF PARAMETERS         Density guess:                                    ATOMIC
                        --------------------------------------------------------
                        max_scf:                                             500
                        max_scf_history:                                       0
                        max_diis:                                              4
                        --------------------------------------------------------
                        eps_scf:                                        1.00E-09
                        eps_scf_history:                                0.00E+00
                        eps_diis:                                       1.00E-01
                        eps_eigval:                                     1.00E-05
                        --------------------------------------------------------
                        level_shift [a.u.]:                             0.000000
                        added MOs                                        24    0
                        --------------------------------------------------------
                        Mixing method:                            BROYDEN_MIXING
                                                charge density mixing in g-space
                        --------------------------------------------------------
                        Smear method:                                FERMI_DIRAC
                        Electronic temperature [K]:                        300.0
                        Electronic temperature [a.u.]:                  9.50E-04
                        Accuracy threshold:                             1.00E-10
                        --------------------------------------------------------
                        No outer SCF

 PW_GRID| Information for grid number                                          1
 PW_GRID| Grid distributed over                                     8 processors
 PW_GRID| Real space group dimensions                                     8    1
 PW_GRID| the grid is blocked:                                                NO
 PW_GRID| Cutoff [a.u.]                                                    500.0
 PW_GRID| spherical cutoff:                                                   NO
 PW_GRID|   Bounds   1            -48      47                Points:          96
 PW_GRID|   Bounds   2            -48      47                Points:          96
 PW_GRID|   Bounds   3            -48      47                Points:          96
 PW_GRID| Volume element (a.u.^3)  0.9788E-03     Volume (a.u.^3)       865.9358
 PW_GRID| Grid span                                                    FULLSPACE
 PW_GRID|   Distribution                         Average         Max         Min
 PW_GRID|   G-Vectors                           110592.0      110592      110592
 PW_GRID|   G-Rays                                1152.0        1152        1152
 PW_GRID|   Real Space Points                   110592.0      110592      110592

 PW_GRID| Information for grid number                                          2
 PW_GRID| Number of the reference grid                                         1
 PW_GRID| Grid distributed over                                     8 processors
 PW_GRID| Real space group dimensions                                     8    1
 PW_GRID| the grid is blocked:                                                NO
 PW_GRID| Cutoff [a.u.]                                                    166.7
 PW_GRID| spherical cutoff:                                                   NO
 PW_GRID|   Bounds   1            -30      29                Points:          60
 PW_GRID|   Bounds   2            -30      29                Points:          60
 PW_GRID|   Bounds   3            -30      29                Points:          60
 PW_GRID| Volume element (a.u.^3)  0.4009E-02     Volume (a.u.^3)       865.9358
 PW_GRID| Grid span                                                    FULLSPACE
 PW_GRID|   Distribution                         Average         Max         Min
 PW_GRID|   G-Vectors                            27000.0       27120       26940
 PW_GRID|   G-Rays                                 450.0         452         449
 PW_GRID|   Real Space Points                    27000.0       28800       25200

 PW_GRID| Information for grid number                                          3
 PW_GRID| Number of the reference grid                                         1
 PW_GRID| Grid distributed over                                     8 processors
 PW_GRID| Real space group dimensions                                     8    1
 PW_GRID| the grid is blocked:                                                NO
 PW_GRID| Cutoff [a.u.]                                                     55.6
 PW_GRID| spherical cutoff:                                                   NO
 PW_GRID|   Bounds   1            -16      15                Points:          32
 PW_GRID|   Bounds   2            -16      15                Points:          32
 PW_GRID|   Bounds   3            -16      15                Points:          32
 PW_GRID| Volume element (a.u.^3)  0.2643E-01     Volume (a.u.^3)       865.9358
 PW_GRID| Grid span                                                    FULLSPACE
 PW_GRID|   Distribution                         Average         Max         Min
 PW_GRID|   G-Vectors                             4096.0        4128        4064
 PW_GRID|   G-Rays                                 128.0         129         127
 PW_GRID|   Real Space Points                     4096.0        4096        4096

 PW_GRID| Information for grid number                                          4
 PW_GRID| Number of the reference grid                                         1
 PW_GRID| Grid distributed over                                     8 processors
 PW_GRID| Real space group dimensions                                     8    1
 PW_GRID| the grid is blocked:                                                NO
 PW_GRID| Cutoff [a.u.]                                                     18.5
 PW_GRID| spherical cutoff:                                                   NO
 PW_GRID|   Bounds   1            -10       9                Points:          20
 PW_GRID|   Bounds   2            -10       9                Points:          20
 PW_GRID|   Bounds   3            -10       9                Points:          20
 PW_GRID| Volume element (a.u.^3)  0.1082         Volume (a.u.^3)       865.9358
 PW_GRID| Grid span                                                    FULLSPACE
 PW_GRID|   Distribution                         Average         Max         Min
 PW_GRID|   G-Vectors                             1000.0        1040         980
 PW_GRID|   G-Rays                                  50.0          52          49
 PW_GRID|   Real Space Points                     1000.0        1200         800

 POISSON| Solver                                                        PERIODIC
 POISSON| Periodicity                                                        XYZ

 RS_GRID| Information for grid number                                          1
 RS_GRID|   Bounds   1            -48      47                Points:          96
 RS_GRID|   Bounds   2            -48      47                Points:          96
 RS_GRID|   Bounds   3            -48      47                Points:          96
 RS_GRID| Real space fully replicated
 RS_GRID| Group size                                                           1

 RS_GRID| Information for grid number                                          2
 RS_GRID|   Bounds   1            -30      29                Points:          60
 RS_GRID|   Bounds   2            -30      29                Points:          60
 RS_GRID|   Bounds   3            -30      29                Points:          60
 RS_GRID| Real space fully replicated
 RS_GRID| Group size                                                           1

 RS_GRID| Information for grid number                                          3
 RS_GRID|   Bounds   1            -16      15                Points:          32
 RS_GRID|   Bounds   2            -16      15                Points:          32
 RS_GRID|   Bounds   3            -16      15                Points:          32
 RS_GRID| Real space fully replicated
 RS_GRID| Group size                                                           1

 RS_GRID| Information for grid number                                          4
 RS_GRID|   Bounds   1            -10       9                Points:          20
 RS_GRID|   Bounds   2            -10       9                Points:          20
 RS_GRID|   Bounds   3            -10       9                Points:          20
 RS_GRID| Real space fully replicated
 RS_GRID| Group size                                                           1

 Number of electrons:                                                         16
 Number of occupied orbitals:                                                  8
 Number of molecular orbitals:                                                32

 Number of orbital functions:                                                 32
 Number of independent orbital functions:                                     32

 Extrapolation method: initial_guess

 Atomic guess: The first density matrix is obtained in terms of atomic orbitals
               and electronic configurations assigned to each atomic kind

 Guess for atomic kind: Pb

 Electronic structure
    Total number of core electrons                                         78.00
    Total number of valence electrons                                       4.00
    Total number of electrons                                              82.00
    Multiplicity                                                   not specified
    S   [  2.00  2.00  2.00  2.00  2.00] 2.00
    P   [  6.00  6.00  6.00  6.00] 2.00
    D   [ 10.00 10.00 10.00]
    F   [ 14.00]


 *******************************************************************************
                  Iteration          Convergence                     Energy [au]
 *******************************************************************************
                          1        0.168572                      -3.312088148663
                          2        0.342552E-01                  -3.354750873955
                          3        0.848988E-03                  -3.356387994868
                          4        0.200061E-03                  -3.356388848558
                          5        0.596259E-04                  -3.356388894885
                          6        0.342266E-04                  -3.356388897913
                          7        0.491188E-07                  -3.356388899401

 Energy components [Hartree]           Total Energy ::           -3.356388899401
                                        Band Energy ::           -1.018778102596
                                     Kinetic Energy ::            1.158619306567
                                   Potential Energy ::           -4.515008205968
                                      Virial (-V/T) ::            3.896886734389
                                        Core Energy ::           -5.084186864921
                                          XC Energy ::           -0.873648064241
                                     Coulomb Energy ::            2.601446029761
                       Total Pseudopotential Energy ::           -6.306158344946
                       Local Pseudopotential Energy ::           -6.322372180844
                    Nonlocal Pseudopotential Energy ::            0.016213835899
                                        Confinement ::            0.633521734571

 Orbital energies  State     L     Occupation   Energy[a.u.]          Energy[eV]

                       1     0          2.000      -0.412319          -11.219760

                       1     1          2.000      -0.097070           -2.641421


 Total Electron Density at R=0:                                         0.000062
 Re-scaling the density matrix to get the right number of electrons
                  # Electrons              Trace(P)               Scaling factor
                           16                16.000                        1.000


 SCF WAVEFUNCTION OPTIMIZATION

  Step     Update method      Time    Convergence         Total energy    Change
  ------------------------------------------------------------------------------
     1 NoMix/Diag. 0.10E+00    1.5     0.15842550       -14.4262350961 -1.44E+01
     2 Broy./Diag. 0.10E+00    1.5     0.00049060       -14.4706203825 -4.44E-02
     3 Broy./Diag. 0.10E+00    1.5     0.01034554       -14.3450451881  1.26E-01
     4 Broy./Diag. 0.10E+00    1.5     0.00047505       -14.3382410560  6.80E-03
     5 Broy./Diag. 0.10E+00    1.5     0.00380809       -14.2971296303  4.11E-02
     6 Broy./Diag. 0.10E+00    1.5     0.00005872       -14.2944345725  2.70E-03
     7 Broy./Diag. 0.10E+00    1.5     0.00054076       -14.2918871156  2.55E-03
     8 Broy./Diag. 0.10E+00    1.5     0.00000790       -14.2917303619  1.57E-04
     9 Broy./Diag. 0.10E+00    1.5     0.00007334       -14.2921948809 -4.65E-04
    10 Broy./Diag. 0.10E+00    1.5     0.00000232       -14.2922325692 -3.77E-05
    11 Broy./Diag. 0.10E+00    1.5     0.00002551       -14.2923198016 -8.72E-05
    12 Broy./Diag. 0.10E+00    1.6     0.00000066       -14.2923200555 -2.54E-07
    13 Broy./Diag. 0.10E+00    1.6     0.00000650       -14.2923211429 -1.09E-06
    14 Broy./Diag. 0.10E+00    1.5     9.2569E-09       -14.2923223142 -1.17E-06
    15 Broy./Diag. 0.10E+00    1.5     0.00000035       -14.2923219331  3.81E-07
    16 Broy./Diag. 0.10E+00    1.5     0.00000004       -14.2923223304 -3.97E-07
    17 Broy./Diag. 0.10E+00    1.5     0.00000001       -14.2923225399 -2.09E-07
    18 Broy./Diag. 0.10E+00    1.5     1.0556E-09       -14.2923225668 -2.69E-08
    19 Broy./Diag. 0.10E+00    1.5     7.2217E-09       -14.2923225166  5.02E-08
    20 Broy./Diag. 0.10E+00    1.5     4.7270E-09       -14.2923225122  4.42E-09
    21 Broy./Diag. 0.10E+00    1.5     4.5470E-09       -14.2923225211 -8.93E-09
    22 Broy./Diag. 0.10E+00    1.5     1.0307E-09       -14.2923225282 -7.13E-09
    23 Broy./Diag. 0.10E+00    1.5     3.2242E-10       -14.2923225308 -2.59E-09

  *** SCF run converged in    23 steps ***


  Electronic density on regular grids:        -16.0000000000        0.0000000000
  Core density on regular grids:               16.0000000000       -0.0000000000
  Total charge density on r-space grids:        0.0000000000
  Total charge density g-space grids:           0.0000000000

  Overlap energy of the core charge distribution:               0.00000000000067
  Self energy of the core charge distribution:                -29.23735493688778
  Core Hamiltonian energy:                                      5.89484446148627
  Hartree energy:                                              13.04135969652777
  Exchange-correlation energy:                                 -3.99089460236586
  Electronic entropic energy:                                  -0.00027714957449
  Fermi energy:                                                 0.15491562636967

  Total energy:                                               -14.29232253081306

 !-----------------------------------------------------------------------------!
                     Mulliken Population Analysis

 #  Atom  Element  Kind  Atomic population                           Net charge
       1     Pb       1          4.000000                             -0.000000
       2     Pb       1          4.000000                              0.000000
       3     Pb       1          4.000000                             -0.000000
       4     Pb       1          4.000000                              0.000000
 # Total charge                             16.000000                  0.000000

 !-----------------------------------------------------------------------------!

 !-----------------------------------------------------------------------------!
                           Hirshfeld Charges

  #Atom  Element  Kind  Ref Charge     Population                    Net charge
      1       Pb     1       4.000          4.000                        -0.000
      2       Pb     1       4.000          4.000                         0.000
      3       Pb     1       4.000          4.000                        -0.000
      4       Pb     1       4.000          4.000                         0.000

  Total Charge                                                            0.000
 !-----------------------------------------------------------------------------!
  
 -------------------------------------------------------------------------------
 -                                                                             -
 -                          BANDSTRUCTURE CALCULATION                          -
 -                                                                             -
 -------------------------------------------------------------------------------
  
 Number of occupied molecular orbitals (MOs) = Number of occupied bands        8
 Number of unoccupied (= virtual) MOs = Number of unoccupied bands            24
 Number of Gaussian basis functions for MOs                                   32
 Number of cells considered in the DFT calculation                           605
 Number of cells for G, , W,                                               343
 Number of special k-points for the bandstructure                              4
 Number of k-points for the bandstructure                                    660

 SOC requested, SOC energy window:                                       10.0 eV

 
 SCF valence band maximum (eV):                                            6.149
 SCF conduction band minimum (eV):                                         3.698
 SCF indirect band gap (eV):                                              -2.451
 SCF direct band gap (eV):                                                 0.000
 
 SCF+SOC valence band maximum (eV):                                        4.648
 SCF+SOC conduction band minimum (eV):                                     3.117
 SCF+SOC indirect band gap (eV):                                          -1.531
 SCF+SOC direct band gap (eV):                                             0.000

 ENERGY| Total FORCE_EVAL ( QS ) energy [hartree]            -14.292322530813056

 -------------------------------------------------------------------------------
 -                                                                             -
 -                                DBCSR STATISTICS                             -
 -                                                                             -
 -------------------------------------------------------------------------------
 COUNTER                                    TOTAL       BLAS       SMM       ACC
 flops inhomo. stacks                           0       0.0%      0.0%      0.0%
 flops total                         0.000000E+00       0.0%      0.0%      0.0%
 flops max/rank                      0.000000E+00       0.0%      0.0%      0.0%
 matmuls inhomo. stacks                         0       0.0%      0.0%      0.0%
 matmuls total                                  0       0.0%      0.0%      0.0%
 number of processed stacks                     0       0.0%      0.0%      0.0%
 average stack size                                     0.0       0.0       0.0
 marketing flops                     0.000000E+00
 -------------------------------------------------------------------------------
 -                                                                             -
 -                      DBCSR MESSAGE PASSING PERFORMANCE                      -
 -                                                                             -
 -------------------------------------------------------------------------------
 ROUTINE             CALLS      AVE VOLUME [Bytes]
 MP_Bcast                1                     12.
 MP_Allreduce           19                     21.
 MP_Alltoall        609560                    646.
 -------------------------------------------------------------------------------

 -------------------------------------------------------------------------------
 -                                                                             -
 -                                DBM STATISTICS                               -
 -                                                                             -
 -------------------------------------------------------------------------------
    M  x    N  x    K                                          COUNT     PERCENT
 -------------------------------------------------------------------------------

 -------------------------------------------------------------------------------
 -                                                                             -
 -                                GRID STATISTICS                              -
 -                                                                             -
 -------------------------------------------------------------------------------
 LP    KERNEL             BACKEND                              COUNT     PERCENT
 2     collocate ortho    CPU                                 720768      51.06%
 2     integrate ortho    CPU                                 690736      48.94%
 0     collocate general  CPU                                      8       0.00%
 0     integrate general  CPU                                      4       0.00%
 -------------------------------------------------------------------------------

 MEMORY| Estimated peak process memory [MiB]                                 553

 -------------------------------------------------------------------------------
 ----                             MULTIGRID INFO                            ----
 -------------------------------------------------------------------------------
 count for grid        1:            540          cutoff [a.u.]          500.00
 count for grid        2:          13348          cutoff [a.u.]          166.67
 count for grid        3:          10588          cutoff [a.u.]           55.56
 count for grid        4:          56660          cutoff [a.u.]           18.52
 total gridlevel count  :          81136

 -------------------------------------------------------------------------------
 -                                                                             -
 -                         MESSAGE PASSING PERFORMANCE                         -
 -                                                                             -
 -------------------------------------------------------------------------------

 ROUTINE             CALLS      AVE VOLUME [Bytes]
 MP_Group                5
 MP_Bcast           212173                   2697.
 MP_Allreduce        45115                     53.
 MP_Sync                 4
 MP_Alltoall           419                4934067.
 MP_SendRecv           686                 301526.
 MP_ISendRecv          651                 295778.
 MP_Wait            146379
 MP_comm_split           3
 MP_ISend           154560                    246.
 MP_IRecv           247296                    156.
 -------------------------------------------------------------------------------


 -------------------------------------------------------------------------------
 -                                                                             -
 -                           R E F E R E N C E S                               -
 -                                                                             -
 -------------------------------------------------------------------------------
 
 CP2K version 2025.1 (Development Version), the CP2K developers group (2025).
 CP2K is freely available from https://www.cp2k.org/ .
 
 T. D. Kuehne, M. Iannuzzi, M. Del Ben, V. V. Rybkin, P. Seewald, F. Stein, T. 
 Laino, R. Z. Khaliullin, O. Schuett, F. Schiffmann, D. Golze, J. Wilhelm, S. 
 Chulkov, M. H. Bani-Hashemian, V. Weber, U. Borstnik, M. Taillefumier, A. S. 
 Jakobovits, A. Lazzaro, H. Pabst, T. Mueller, R. Schade, M. Guidon, S. 
 Andermatt, N. Holmberg, G. K. Schenter, A. Hehn, A. Bussy, F. Belleflamme, G. 
 Tabacchi, A. Gloess, M. Lass, I. Bethune, C. J. Mundy, C. Plessl, M. Watkins, 
 J. VandeVondele, M. Krack, J. Hutter.
 J. Chem. Phys. 152, 194103 (2020).
 CP2K: An electronic structure and molecular dynamics software package - 
 Quickstep: Efficient and accurate electronic structure calculations.
 https://doi.org/10.1063/5.0007045

 O. Schuett, P. Messmer, J. Hutter, J. VandeVondele.
 Electronic Structure Calculations on Graphics Processing Units, 173-190 (2016).
 GPU-Accelerated Sparse Matrix-Matrix Multiplication for Linear Scaling Density 
 Functional Theory.
 https://doi.org/10.1002/9781118670712.ch8

 J. Hutter, M. Iannuzzi, F. Schiffmann, J. VandeVondele.
 WIREs Comput Mol Sci. 4, 15-25 (2014).
 CP2K: atomistic simulations of condensed matter systems.
 https://doi.org/10.1002/wcms.1159

 U. Borstnik, J. VandeVondele, V. Weber, J. Hutter.
 Parallel Comput. 40, 47-58 (2014).
 Sparse matrix multiplication: The distributed block-compressed sparse row 
 library.
 https://doi.org/10.1016/j.parco.2014.03.012

 J. VandeVondele, J. Hutter.
 J. Chem. Phys. 127, 114105 (2007).
 Gaussian basis sets for accurate calculations on molecular systems in gas and 
 condensed phases.
 https://doi.org/10.1063/1.2770708

 J. VandeVondele, M. Krack, F. Mohamed, M. Parrinello, T. Chassaing, J. Hutter.
 Comput. Phys. Commun. 167, 103-128 (2005).
 QUICKSTEP: Fast and accurate density functional calculations using a mixed 
 Gaussian and plane waves approach.
 https://doi.org/10.1016/j.cpc.2004.12.014

 M. Krack.
 Theor. Chem. Acc. 114, 145-152 (2005).
 Pseudopotentials for H to Kr optimized for gradient-corrected 
 exchange-correlation functionals.
 https://doi.org/10.1007/s00214-005-0655-y

 M. Frigo, S. G. Johnson.
 Proc. IEEE 93, 216-231 (2005).
 The design and implementation of FFTW3.
 https://doi.org/10.1109/JPROC.2004.840301

 C. Hartwigsen, S. Goedecker, J. Hutter.
 Phys. Rev. B 58, 3641-3662 (1998).
 Relativistic separable dual-space Gaussian pseudopotentials from H to Rn.
 https://doi.org/10.1103/PhysRevB.58.3641

 G. Lippert, J. Hutter, M. Parrinello.
 Mol. Phys. 92, 477-487 (1997).
 A hybrid Gaussian and plane wave density functional scheme.
 https://doi.org/10.1080/002689797170220

 S. Goedecker, M. Teter, J. Hutter.
 Phys. Rev. B 54, 1703-1710 (1996).
 Separable dual-space Gaussian pseudopotentials.
 https://doi.org/10.1103/PhysRevB.54.1703

 J. P. Perdew, K. Burke, M. Ernzerhof.
 Phys. Rev. Lett. 77, 3865-3868 (1996).
 Generalized gradient approximation made simple.
 https://doi.org/10.1103/PhysRevLett.77.3865


 -------------------------------------------------------------------------------
 -                                                                             -
 -                                T I M I N G                                  -
 -                                                                             -
 -------------------------------------------------------------------------------
 SUBROUTINE                       CALLS  ASD         SELF TIME        TOTAL TIME
                                MAXIMUM       AVERAGE  MAXIMUM  AVERAGE  MAXIMUM
 CP2K                                 1  1.0    0.011    0.014   50.201   50.201
 qs_energies                          1  2.0    0.002    0.002   49.961   49.970
 scf_env_do_scf                       1  3.0    0.000    0.000   36.271   36.271
 scf_env_do_scf_inner_loop           23  4.0    0.013    0.014   36.271   36.271
 qs_scf_new_mos_kp                   23  5.0    0.000    0.000   31.060   31.240
 do_general_diag_kp                  23  6.0    0.134    0.145   31.060   31.240
 copy_dbcsr_to_fm                 31364  7.2    0.329    0.347   14.236   14.486
 dbcsr_complete_redistribute      43140  8.4    1.386    1.483   13.558   14.172
 qs_energies_properties               1  3.0    0.000    0.000   13.187   13.197
 post_scf_bandstructure               1  4.0    0.000    0.000   13.187   13.196
 dbcsr_desymmetrize_deep          61516  7.7    0.931    0.979    9.498   11.059
 mp_alltoall_i22                 104656  9.0    6.914    9.080    6.914    9.080
 rskp_transform                   15076  7.2    5.630    8.987    5.630    8.987
 kpoint_density_transform            23  7.0    0.050    0.053    7.525    7.533
 rsmat_to_kp                       3300  7.0    0.052    0.056    6.036    6.041
 cp_cfm_heevd                      3452  7.8    0.004    0.004    5.991    6.002
 cp_cfm_heevd_base                 3452  8.8    5.987    5.998    5.987    5.998
 create_and_init_bs_env               1  5.0    0.000    0.000    5.267    5.267
 compute_cfm_mo_coeff_kp_and_ei       1  6.0    0.004    0.005    5.266    5.266
 copy_fm_to_dbcsr                 11776  8.0    0.072    0.078    4.412    4.866
 soc                                  1  5.0    0.000    0.000    4.310    4.310
 dbcsr_finalize                  138097  8.7    0.570    0.619    3.679    3.929
 H_KS_spinor_kp                       1  6.0    0.010    0.011    3.819    3.894
 dos_pdos_ldos                        1  5.0    0.004    0.004    3.609    3.619
 SOC_ev                             660  6.0    0.009    0.010    3.354    3.361
 transform_dmat                    5888  8.0    2.066    3.311    2.066    3.311
 cp_cfm_geeig_canon                1396  7.0    0.010    0.010    3.233    3.247
 qs_ks_update_qs_env                 23  5.0    0.000    0.000    2.212    2.743
 cp_fm_start_copy_general         35328  7.3    0.407    0.637    2.649    2.709
 mp_cart_sub                      62730  9.2    2.644    2.662    2.644    2.662
 mp_alltoall_d11v                313968  9.6    2.237    2.414    2.237    2.414
 rebuild_ks_matrix                   23  6.0    0.000    0.000    1.829    2.361
 qs_ks_build_kohn_sham_matrix        23  7.0    0.025    0.025    1.829    2.361
 dbcsr_merge_all                  44955 10.4    1.275    1.482    2.000    2.209
 hybrid_alltoall_any              61516  8.7    0.235    0.262    1.574    1.693
 sum_up_and_integrate                23  8.0    0.000    0.000    1.143    1.676
 integrate_v_rspace                  23  9.0    0.013    0.022    1.142    1.675
 mp_cart_create                   31370  9.2    1.585    1.627    1.585    1.627
 qs_rho_update_rho_low               24  5.0    0.000    0.000    1.540    1.548
 calculate_rho_elec                  24  6.0    0.021    0.021    1.540    1.548
 mp_alltoall_i11v                190936  9.2    1.341    1.420    1.341    1.420
 grid_integrate_task_list            23 10.0    0.878    1.401    0.878    1.401
 mp_allgather_i                   70656  8.3    1.045    1.219    1.045    1.219
 grid_collocate_task_list            24  7.0    0.815    1.210    0.815    1.210
 dbcsr_work_create               106471  9.0    0.620    0.649    0.995    1.049
 dbcsr_create_new                197789  8.3    0.785    0.845    0.952    1.025
 mp_bcast_iv                     141339  8.3    0.859    1.001    0.859    1.001
 density_rs2pw                       24  7.0    0.001    0.001    0.702    0.842
 transfer_rs2pw                      98  8.0    0.001    0.001    0.644    0.814
 write_kpoints_restart               23  5.0    0.005    0.011    0.800    0.800
 dbcsr_iterator_start            323197  9.1    0.662    0.672    0.778    0.788
 transfer_rs2pw_500                  26  8.9    0.073    0.075    0.598    0.768
 dbcsr_data_new                 1134430  9.8    0.615    0.752    0.615    0.752
 dbcsr_work_destroy_all          106471 10.0    0.493    0.498    0.742    0.748
 mp_sendrecv_dv                     686 10.0    0.552    0.724    0.552    0.724
 copy_dbcsr_to_fm_bc              31364  8.2    0.296    0.319    0.661    0.685
 cp_dbcsr_alloc_block_from_nbl    15208  6.9    0.380    0.584    0.439    0.646
 fft_wrap_pw1pw2                    419 10.0    0.003    0.004    0.619    0.627
 tree_to_linear_d                 43140 11.4    0.540    0.590    0.540    0.590
 V_SOC_xyz_from_pseudopotential       1  6.0    0.017    0.018    0.491    0.589
 fft_wrap_pw1pw2_500                278 11.3    0.050    0.051    0.571    0.579
 dbcsr_destroy                   168144  8.2    0.272    0.279    0.523    0.562
 dbcsr_copy                       42026  7.2    0.199    0.218    0.469    0.554
 copy_fm_to_dbcsr_bc              11776  9.0    0.153    0.165    0.507    0.548
 dbcsr_data_release             1580659 10.3    0.534    0.546    0.534    0.546
 dbcsr_iterator_stop             323197  9.1    0.420    0.428    0.490    0.499
 fft3d_ps                           419 12.0    0.245    0.248    0.484    0.490
 cp_cfm_gemm                       7488  8.4    0.464    0.475    0.464    0.475
 qs_vxc_create                       23  8.0    0.000    0.000    0.455    0.458
 xc_vxc_pw_create                    23  9.0    0.020    0.020    0.455    0.458
 gspace_mixing                       22  5.0    0.017    0.017    0.404    0.404
 dbcsr_dot                        27831  8.0    0.118    0.127    0.379    0.385
 evaluate_core_matrix_traces         23  6.0    0.000    0.000    0.382    0.382
 calculate_ptrace_kp                 46  7.0    0.020    0.021    0.382    0.382
 parallel_gemm_cfm                 3300  7.0    0.003    0.003    0.338    0.350
 parallel_gemm_cfm_gemm            3300  8.0    0.003    0.004    0.335    0.346
 kpoint_set_mo_occupation            23  7.0    0.310    0.317    0.336    0.343
 quick_finalize                   61516  9.7    0.196    0.201    0.329    0.339
 broyden_mixing                      22  6.0    0.326    0.333    0.334    0.335
 mp_comm_free                     94789  9.1    0.297    0.330    0.297    0.330
 dbcsr_add_d                       1815  7.0    0.002    0.002    0.280    0.316
 dbcsr_add_anytype                 1815  8.0    0.018    0.020    0.278    0.314
 dbcsr_copy_into_existing         12381  9.8    0.151    0.216    0.222    0.288
 add_to_DOS_PDOS                   1320  6.5    0.280    0.282    0.280    0.282
 xc_pw_derive                       138 11.0    0.000    0.000    0.278    0.281
 mp_waitall_1                    146379  8.4    0.158    0.275    0.158    0.275
 cp_fm_write_unformatted           1210  6.0    0.228    0.258    0.230    0.266
 potential_pw2rs                     23 10.0    0.002    0.002    0.251    0.258
 xc_rho_set_and_dset_create          23 10.0    0.011    0.013    0.252    0.255
 qs_energies_init_hamiltonians        1  3.0    0.000    0.000    0.251    0.251
 mp_bcast_im                      70656  8.3    0.196    0.247    0.196    0.247
 mp_sum_d                         28437  8.9    0.209    0.227    0.209    0.227
 self_consistency_check              23  5.0    0.020    0.020    0.205    0.207
 mp_alltoall_z22v                   419 14.0    0.194    0.201    0.194    0.201
 mp_sum_iv                         1340  8.9    0.117    0.195    0.117    0.195
 alloc_cfm_double_array_1d            1  7.0    0.001    0.001    0.110    0.185
 transfer_pw2rs                      93 11.0    0.001    0.001    0.184    0.184
 create_cfm_double                  660  8.0    0.003    0.003    0.109    0.184
 build_core_hamiltonian_matrix        1  4.0    0.002    0.002    0.133    0.183
 xc_pw_divergence                    23 10.0    0.000    0.000    0.180    0.183
 cp_sm_mix                        13915  6.0    0.042    0.045    0.167    0.169
 compute_proj_mo_on_kind            660  6.0    0.012    0.013    0.142    0.158
 add_cfm_submat                    5280  7.0    0.044    0.045    0.154    0.156
 dbcsr_set                       107265  8.0    0.100    0.102    0.135    0.138
 x_to_yz                            230 13.2    0.026    0.026    0.134    0.137
 transfer_pw2rs_500                  24 11.8    0.069    0.071    0.133    0.135
 dbcsr_sort_indices              131640 10.8    0.126    0.133    0.126    0.133
 init_scf_run                         1  3.0    0.000    0.000    0.123    0.129
 scf_env_initial_rho_setup            1  4.0    0.000    0.000    0.123    0.129
 dbcsr_iterator_seek             323197 10.1    0.116    0.121    0.116    0.121
 qs_env_update_s_mstruct              1  4.0    0.000    0.000    0.097    0.114
 dbcsr_make_index_exist          197789  9.3    0.104    0.112    0.104    0.112
 yz_to_x                            189 12.8    0.015    0.015    0.101    0.109
 dbcsr_reserve_blocks             26984  9.2    0.075    0.084    0.099    0.108
 kpoint_density_matrices             23  7.0    0.007    0.007    0.097    0.102
 merge_index                      44955 11.4    0.087    0.099    0.087    0.099
 mp_max_d                         13917  7.0    0.093    0.097    0.093    0.097
 parser_read_line                  8726  4.0    0.003    0.003    0.095    0.096
 parser_read_line_low                26  6.1    0.009    0.036    0.092    0.094
 parallel_gemm_fm                  2944  8.0    0.003    0.003    0.089    0.093
 cp_fm_finish_copy_general        14720  7.8    0.068    0.069    0.088    0.093
 xc_functional_eval                  23 11.0    0.000    0.000    0.089    0.091
 build_core_ppnl                      2  6.0    0.071    0.091    0.071    0.091
 pbe_lda_eval                        23 12.0    0.089    0.091    0.089    0.091
 parallel_gemm_fm_gemm             2944  9.0    0.003    0.003    0.087    0.090
 calculate_rho_core                   1  5.0    0.002    0.003    0.067    0.089
 broadcast_input_information         26  7.1    0.029    0.034    0.083    0.088
 cp_fm_gemm                        2944 10.0    0.084    0.088    0.084    0.088
 create_qs_kind_set                   1  2.0    0.000    0.000    0.077    0.077
 read_qs_kind                         1  3.0    0.042    0.043    0.077    0.077
 cp_fm_to_fm_submat               10560  8.0    0.074    0.076    0.074    0.076
 dbcsr_switch_data_area           61516 10.7    0.056    0.057    0.072    0.073
 dbcsr_scale_anytype               1816  9.0    0.013    0.014    0.066    0.072
 dbcsr_reserve_all_blocks         11776 10.0    0.018    0.019    0.064    0.071
 mp_irecv_iv                     141312  8.3    0.009    0.069    0.009    0.069
 topology_control                     1  2.0    0.000    0.000    0.067    0.067
 mixing_allocate                      1  3.0    0.004    0.004    0.043    0.061
 mp_isend_dv                      35328  8.3    0.049    0.055    0.049    0.055
 write_SOC_eigenvalues              148  6.0    0.006    0.051    0.006    0.051
 scf_post_calculation_gpw             1  3.0    0.000    0.000    0.049    0.050
 write_available_results              1  4.0    0.000    0.000    0.049    0.049
 write_mo_free_results                1  5.0    0.001    0.001    0.049    0.049
 qs_init_subsys                       1  2.0    0.001    0.002    0.048    0.048
 mp_isend_iv                      79488  8.3    0.012    0.047    0.012    0.047
 read_cell_cif                        2  4.5    0.002    0.005    0.046    0.046
 dbcsr_distribution_new           43142  8.7    0.037    0.046    0.037    0.046
 pw_scatter_p                       230 12.2    0.045    0.046    0.045    0.046
 qs_env_setup                         1  3.0    0.000    0.000    0.045    0.046
 qs_env_rebuild_pw_env                2  3.5    0.000    0.000    0.045    0.045
 pw_env_rebuild                       1  5.0    0.000    0.001    0.044    0.045
 cp_fm_cleanup_copy_general       25024  7.1    0.027    0.028    0.041    0.043
 dbcsr_get_data_size_used        106471 10.0    0.038    0.043    0.038    0.043
 transfer_pw2rs_170                  23 12.0    0.018    0.019    0.038    0.041
 coordinate_control                   1  3.0    0.000    0.001    0.040    0.041
 coordinate_control_READ_COORDI       1  4.0    0.000    0.000    0.040    0.041
 read_coordinate_cif                  1  5.0    0.002    0.002    0.040    0.040
 pw_poisson_solve                    23  8.0    0.000    0.000    0.040    0.040
 dbcsr_make_dbcsr_index          133455 10.8    0.036    0.038    0.036    0.038
 mp_bcast_i_src                     104  8.1    0.032    0.037    0.032    0.037
 transfer_rs2pw_170                  24  9.0    0.014    0.015    0.035    0.037
 pw_grid_setup                        4  6.0    0.000    0.000    0.036    0.037
 pw_grid_setup_internal               4  7.0    0.001    0.001    0.036    0.037
 mp_isendrecv_dv                    651 13.0    0.016    0.036    0.016    0.036
 mp_sum_dm3                          23  8.0    0.026    0.036    0.026    0.036
 mp_sum_dv                         1342  7.0    0.024    0.036    0.024    0.036
 dbcsr_zero                      107265  9.0    0.034    0.035    0.034    0.035
 mp_irecv_im2                     70656  8.3    0.004    0.033    0.004    0.033
 build_overlap_matrix_low             1  5.0    0.005    0.006    0.025    0.033
 build_kinetic_matrix_low             1  5.0    0.005    0.006    0.024    0.032
 fft_wrap_pw1pw2_170                 47 10.5    0.003    0.003    0.031    0.032
 qs_env_rebuild_rho                   1  5.0    0.000    0.000    0.021    0.029
 qs_rho_rebuild                       1  6.0    0.002    0.002    0.021    0.029
 calculate_first_density_matrix       1  5.0    0.000    0.000    0.021    0.027
 pw_integral_ab_c1d_c1d_gs           23  9.0    0.026    0.026    0.027    0.027
 calculate_atomic_block_dm            1  6.0    0.001    0.001    0.020    0.026
 build_core_ppl                       1  5.0    0.014    0.025    0.014    0.025
 hirshfeld_integration                1  6.0    0.010    0.019    0.025    0.025
 pw_grid_sort                         4  8.0    0.017    0.017    0.024    0.024
 mp_bcast_am_src                     26  8.1    0.015    0.016    0.022    0.024
 dbcsr_data_copy_aa2              43140 11.4    0.021    0.023    0.021    0.023
 mixing_init                          1  5.0    0.021    0.022    0.022    0.022
 mp_irecv_dv                      35328  8.3    0.021    0.022    0.021    0.022
 calculate_ecore_overlap              1  4.0    0.000    0.000    0.017    0.022
 mp_isend_im2                     39744  8.3    0.005    0.022    0.005    0.022
 pw_gather_p                        189 11.8    0.022    0.022    0.022    0.022
 calculate_hirshfeld_normalizat       1  6.0    0.007    0.014    0.020    0.020
 cp_fm_create                     22670  7.9    0.018    0.019    0.018    0.019
 qs_create_task_list                  1  5.0    0.000    0.000    0.009    0.018
 generate_qs_task_list                1  6.0    0.006    0.012    0.009    0.018
 cp_cfm_scale_and_add_fm          13504  7.8    0.017    0.017    0.017    0.017
 qs_scf_ensure_work_matrices          1  3.0    0.000    0.000    0.011    0.014
 pw_copy                            345 10.5    0.013    0.013    0.013    0.013
 pw_derive                          207 11.3    0.012    0.012    0.012    0.012
 restraint_control                    1  2.0    0.000    0.000    0.009    0.011
 mp_sum_i                             3  2.3    0.009    0.011    0.009    0.011
 write_dos_pdos                       2  6.0    0.001    0.011    0.001    0.011
 grid_free_task_list                  1  2.0    0.009    0.010    0.009    0.010
 fft_wrap_pw1pw2_60                  47 10.5    0.001    0.001    0.009    0.010
 mp_sum_dm                           22  7.0    0.005    0.009    0.005    0.009
 transfer_pw2rs_60                   23 12.0    0.003    0.003    0.009    0.009
 pw_copy_from_array                 230 12.2    0.009    0.009    0.009    0.009
 mp_comm_size                     28715  9.0    0.008    0.009    0.008    0.009
 pw_poisson_set                      24  8.9    0.000    0.000    0.008    0.008
 mp_sum_l                           429  2.1    0.007    0.008    0.007    0.008
 transfer_rs2pw_60                   24  9.0    0.002    0.003    0.008    0.008
 mp_recv_dv                        3630  7.0    0.001    0.008    0.001    0.008
 sort_shells                          4  9.0    0.007    0.007    0.007    0.007
 mp_comm_rank                     28715  9.0    0.007    0.007    0.007    0.007
 init_cube_info                       4  6.0    0.007    0.007    0.007    0.007
 bs_env_release                       1  2.0    0.003    0.003    0.006    0.006
 mp_maxloc_dv                       949  1.0    0.006    0.006    0.006    0.006
 pw_axpy                            234  9.3    0.005    0.006    0.005    0.006
 cp_cfm_zscale                     5356  7.3    0.005    0.006    0.005    0.006
 pw_grid_assign                       4  8.0    0.005    0.005    0.005    0.005
 fft_wrap_pw1pw2_20                  47 10.5    0.000    0.000    0.005    0.005
 cp_cfm_to_fm                      6676  7.8    0.005    0.005    0.005    0.005
 -------------------------------------------------------------------------------

 The number of warnings for this run is : 1
 
 -------------------------------------------------------------------------------
  **** **** ******  **  PROGRAM ENDED AT                 2025-08-07 23:33:28.929
 ***** ** ***  *** **   PROGRAM RAN ON                              i01r03c06s11
 **    ****   ******    PROGRAM RAN BY                                   di38fab
 ***** **    ** ** **   PROGRAM PROCESS ID                               3442720
  **** **  *******  **  PROGRAM STOPPED IN /hppfs/scratch/04/di38fab/09_GTH/Delt
                                           a_Set/Pb/aug-SZV-MOLOPT-GTH-tier-1/8x
                                           8x8
